 vasp.5.3.3 18Dez12 (build Dec 31 2015 11:14:23) complex                        
  
 executed on             LinuxIFC date 2017.05.02  21:17:44
 running on   16 total cores
 distrk:  each k-point on   16 cores,    1 groups
 distr:  one band on NCORES_PER_BAND=   4 cores,    4 groups


--------------------------------------------------------------------------------------------------------


 INCAR:
 POTCAR:    PAW_PBE Be 06Sep2000                  
 POTCAR:    PAW_PBE C 08Apr2002                   
 POTCAR:    PAW_PBE Be 06Sep2000                  
   VRHFIN =Be: s2p0                                                             
   LEXCH  = PE                                                                  
   EATOM  =    27.4793 eV,    2.0197 Ry                                         
                                                                                
   TITEL  = PAW_PBE Be 06Sep2000                                                
   LULTRA =        F    use ultrasoft PP ?                                      
   IUNSCR =        1    unscreen: 0-lin 1-nonlin 2-no                           
   RPACOR =    1.580    partial core radius                                     
   POMASS =    9.013; ZVAL   =    2.000    mass and valenz                      
   RCORE  =    1.900    outmost cutoff radius                                   
   RWIGS  =    1.880; RWIGS  =    0.995    wigner-seitz radius (au A)           
   ENMAX  =  247.543; ENMIN  =  185.658 eV                                      
   ICORE  =        2    local potential                                         
   LCOR   =        T    correct aug charges                                     
   LPAW   =        T    paw PP                                                  
   EAUG   =  318.781                                                            
   DEXC   =    0.000                                                            
   RMAX   =    1.944    core radius for proj-oper                               
   RAUG   =    1.300    factor for augmentation sphere                          
   RDEP   =    2.003    radius for radial grids                                 
   RDEPT  =    1.802    core radius for aug-charge                              
                                                                                
   Atomic configuration                                                         
    4 entries                                                                   
     n  l   j            E        occ.                                          
     1  0  0.50      -106.2287   2.0000                                         
     2  0  0.50        -5.6162   1.9900                                         
     2  1  0.50        -2.0244   0.0100                                         
     3  2  1.50        -1.3606   0.0000                                         
   Description                                                                  
     l       E           TYP  RCUT    TYP  RCUT                                 
     0     -5.6161739     23  1.900                                             
     0     27.2116520     23  1.900                                             
     1     -2.0243505     23  1.900                                             
     1     27.2116520     23  1.900                                             
     2     -1.3605826     15  1.500                                             
  local pseudopotential read in
  partial core-charges read in
  partial kinetic energy density read in
  atomic valenz-charges read in
  non local Contribution for L=           0  read in
    real space projection operators read in
  non local Contribution for L=           0  read in
    real space projection operators read in
  non local Contribution for L=           1  read in
    real space projection operators read in
  non local Contribution for L=           1  read in
    real space projection operators read in
    PAW grid and wavefunctions read in
 
   number of l-projection  operators is LMAX  =           4
   number of lm-projection operators is LMMAX =           8
 
 POTCAR:    PAW_PBE C 08Apr2002                   
   VRHFIN =C: s2p2                                                              
   LEXCH  = PE                                                                  
   EATOM  =   147.1560 eV,   10.8157 Ry                                         
                                                                                
   TITEL  = PAW_PBE C 08Apr2002                                                 
   LULTRA =        F    use ultrasoft PP ?                                      
   IUNSCR =        1    unscreen: 0-lin 1-nonlin 2-no                           
   RPACOR =    1.200    partial core radius                                     
   POMASS =   12.011; ZVAL   =    4.000    mass and valenz                      
   RCORE  =    1.500    outmost cutoff radius                                   
   RWIGS  =    1.630; RWIGS  =    0.863    wigner-seitz radius (au A)           
   ENMAX  =  400.000; ENMIN  =  300.000 eV                                      
   ICORE  =        2    local potential                                         
   LCOR   =        T    correct aug charges                                     
   LPAW   =        T    paw PP                                                  
   EAUG   =  644.873                                                            
   DEXC   =    0.000                                                            
   RMAX   =    1.529    core radius for proj-oper                               
   RAUG   =    1.300    factor for augmentation sphere                          
   RDEP   =    1.501    radius for radial grids                                 
   RDEPT  =    1.300    core radius for aug-charge                              
                                                                                
   Atomic configuration                                                         
    4 entries                                                                   
     n  l   j            E        occ.                                          
     1  0  0.50      -273.3789   2.0000                                         
     2  0  0.50       -13.7508   2.0000                                         
     2  1  0.50        -5.2854   2.0000                                         
     3  2  1.50        -5.4423   0.0000                                         
   Description                                                                  
     l       E           TYP  RCUT    TYP  RCUT                                 
     0    -13.7508458     23  1.200                                             
     0     -8.2022199     23  1.200                                             
     1     -5.2854383     23  1.500                                             
     1     34.0145650     23  1.500                                             
     2     -5.4423304      7  1.500                                             
  local pseudopotential read in
  partial core-charges read in
  partial kinetic energy density read in
  atomic valenz-charges read in
  non local Contribution for L=           0  read in
    real space projection operators read in
  non local Contribution for L=           0  read in
    real space projection operators read in
  non local Contribution for L=           1  read in
    real space projection operators read in
  non local Contribution for L=           1  read in
    real space projection operators read in
    PAW grid and wavefunctions read in
 
   number of l-projection  operators is LMAX  =           4
   number of lm-projection operators is LMMAX =           8
 
  PAW_PBE Be 06Sep2000                  :
 energy of atom  1       EATOM=  -27.4793
 kinetic energy error for atom=    0.0002 (will be added to EATOM!!)
  PAW_PBE C 08Apr2002                   :
 energy of atom  2       EATOM= -147.1560
 kinetic energy error for atom=    0.0192 (will be added to EATOM!!)
 
 
 POSCAR: Be2C                                    
  positions in direct lattice
  velocities in cartesian coordinates
 exchange correlation table for  LEXCH =        8
   RHO(1)=    0.500       N(1)  =     2000
   RHO(2)=  100.500       N(2)  =     4000
 


--------------------------------------------------------------------------------------------------------


 ion  position               nearest neighbor table
   1  0.288  0.635  0.822-   3 1.79   3 1.79   3 1.79   2 1.96   2 1.96   2 1.96
   2  0.621  0.302  0.883-   3 1.79   3 1.79   3 1.79   1 1.96   1 1.96   1 1.96
   3  0.955  0.969  0.852-   2 1.79   1 1.79   1 1.79   2 1.79   2 1.79   1 1.79
 
  LATTYP: Found a hexagonal cell.
 ALAT       =     2.9900000000
 C/A-ratio  =     5.0167224080
  
  Lattice vectors:
  
 A1 = (   2.5894159573,  -1.4950000000,   0.0000000000)
 A2 = (   0.0000000000,   2.9900000000,   0.0000000000)
 A3 = (   0.0000000000,   0.0000000000,  15.0000000000)


Analysis of symmetry for initial positions (statically):
=====================================================================
 Subroutine PRICEL returns:
 Original cell was already a primitive cell.
 

 Routine SETGRP: Setting up the symmetry group for a 
 hexagonal supercell.


 Subroutine GETGRP returns: Found  2 space group operations
 (whereof  1 operations were pure point group operations)
 out of a pool of 24 trial point group operations.


The static configuration has the point symmetry C_1 .
 The point group associated with its full space group is C_2 .


Analysis of symmetry for dynamics (positions and initial velocities):
=====================================================================
 Subroutine PRICEL returns:
 Original cell was already a primitive cell.
 

 Routine SETGRP: Setting up the symmetry group for a 
 hexagonal supercell.


 Subroutine GETGRP returns: Found  2 space group operations
 (whereof  1 operations were pure point group operations)
 out of a pool of 24 trial point group operations.


The dynamic configuration has the point symmetry C_1 .
 The point group associated with its full space group is C_2 .


Analysis of magnetic symmetry:
=====================================================================

 Subroutine MAGSYM returns: Found  2 space group operations
 (whereof  1 operations were pure point group operations)
 out of a pool of  2 trial space group operations
 (whereof  1 operations were pure point group operations)
 and found also     1 'primitive' translations


The magnetic configuration has the point symmetry C_1 .
 The point group associated with its full space group is C_2 .


 irot  :   1
 --------------------------------------------------------------------
 isymop:   1   0   0
           0   1   0
           0   0   1

 gtrans:     0.0000000     0.0000000     0.0000000

 ptrans:     0.0000000     0.0000000     0.0000000
 rotmap:
 (   1->   1)  (   2->   2)  (   3->   3) 


 irot  :   2
 --------------------------------------------------------------------
 isymop:   0   1   0
           1   0   0
           0   0  -1

 gtrans:     0.9860133     0.0139867     0.7049266

 ptrans:     0.0000000     0.0000000     0.0000000
 rotmap:
 (   1->   2)  (   2->   1)  (   3->   3) 
 
 
 KPOINTS: k along high symmetry lines             
  interpolating k-points between supplied coordinates
  k-points in reciprocal lattice
Space group operators:
 irot       det(A)        alpha          n_x          n_y          n_z        tau_x        tau_y        tau_z
    1     1.000000     0.000000     1.000000     0.000000     0.000000     0.000000     0.000000     0.000000
    2     1.000000   180.000000     0.866025     0.500000     0.000000     0.986013     0.013987     0.704927


--------------------------------------------------------------------------------------------------------




 Dimension of arrays:
   k-points           NKPTS =     63   k-points in BZ     NKDIM =     63   number of bands    NBANDS=     12
   number of dos      NEDOS =    301   number of ions     NIONS =      3
   non local maximal  LDIM  =      4   non local SUM 2l+1 LMDIM =      8
   total plane-waves  NPLWV =  40000
   max r-space proj   IRMAX =      1   max aug-charges    IRDMAX=  11893
   dimension x,y,z NGX =    20 NGY =   20 NGZ =  100
   dimension x,y,z NGXF=    40 NGYF=   40 NGZF=  200
   support grid    NGXF=    40 NGYF=   40 NGZF=  200
   ions per type =               2   1
 NGX,Y,Z   is equivalent  to a cutoff of  11.12, 11.12, 11.08 a.u.
 NGXF,Y,Z  is equivalent  to a cutoff of  22.24, 22.24, 22.17 a.u.


 I would recommend the setting:
   dimension x,y,z NGX =    20 NGY =   20 NGZ =  100
 SYSTEM =  Be2C                                    
 POSCAR =  Be2C                                    

 Startparameter for this run:
   NWRITE =      2    write-flag & timer
   PREC   = accura    normal or accurate (medium, high low for compatibility)
   ISTART =      0    job   : 0-new  1-cont  2-samecut
   ICHARG =     11    charge: 1-file 2-atom 10-const
   ISPIN  =      2    spin polarized calculation?
   LNONCOLLINEAR =      F non collinear calculations
   LSORBIT =      F    spin-orbit coupling
   INIWAV =      1    electr: 0-lowe 1-rand  2-diag
   LASPH  =      F    aspherical Exc in radial PAW
   METAGGA=      F    non-selfconsistent MetaGGA calc.

 Electronic Relaxation 1
   ENCUT  =  420.0 eV  30.87 Ry    5.56 a.u.   5.00  5.00 25.07*2*pi/ulx,y,z
   ENINI  =  420.0     initial cutoff
   ENAUG  =  644.9 eV  augmentation charge cutoff
   NELM   =     60;   NELMIN=  2; NELMDL=  0     # of ELM steps 
   EDIFF  = 0.1E-03   stopping-criterion for ELM
   LREAL  =      F    real-space projection
   NLSPLINE    = F    spline interpolate recip. space projectors
   LCOMPAT=      F    compatible to vasp.4.4
   GGA_COMPAT  = T    GGA compatible to vasp.4.4-vasp.4.6
   LMAXPAW     = -100 max onsite density
   LMAXMIX     =    2 max onsite mixed and CHGCAR
   VOSKOWN=      0    Vosko Wilk Nusair interpolation
   ROPT   =    0.00000   0.00000
 Ionic relaxation
   EDIFFG = -.1E-02   stopping-criterion for IOM
   NSW    =      0    number of steps for IOM
   NBLOCK =      1;   KBLOCK =      1    inner block; outer block 
   IBRION =     -1    ionic relax: 0-MD 1-quasi-New 2-CG
   NFREE  =      0    steps in history (QN), initial steepest desc. (CG)
   ISIF   =      2    stress and relaxation
   IWAVPR =     10    prediction:  0-non 1-charg 2-wave 3-comb
   ISYM   =      2    0-nonsym 1-usesym 2-fastsym
   LCORR  =      T    Harris-Foulkes like correction to forces

   POTIM  = 0.5000    time-step for ionic-motion
   TEIN   =    0.0    initial temperature
   TEBEG  =    0.0;   TEEND  =   0.0 temperature during run
   SMASS  =  -3.00    Nose mass-parameter (am)
   estimated Nose-frequenzy (Omega)   =  0.10E-29 period in steps =****** mass=  -0.204E-27a.u.
   SCALEE = 1.0000    scale energy and forces
   NPACO  =    256;   APACO  = 16.0  distance and # of slots for P.C.
   PSTRESS=    0.0 pullay stress

  Mass of Ions in am
   POMASS =   9.01 12.01
  Ionic Valenz
   ZVAL   =   2.00  4.00
  Atomic Wigner-Seitz radii
   RWIGS  =  -1.00 -1.00
  virtual crystal weights 
   VCA    =   1.00  1.00
   NELECT =       8.0000    total number of electrons
   NUPDOWN=      -1.0000    fix difference up-down

 DOS related values:
   EMIN   =  10.00;   EMAX   =-10.00  energy-range for DOS
   EFERMI =   0.00
   ISMEAR =     0;   SIGMA  =   0.10  broadening in eV -4-tet -1-fermi 0-gaus

 Electronic relaxation 2 (details)
   IALGO  =     48    algorithm
   LDIAG  =      T    sub-space diagonalisation (order eigenvalues)
   LSUBROT=      T    optimize rotation matrix (better conditioning)
   TURBO    =      0    0=normal 1=particle mesh
   IRESTART =      0    0=no restart 2=restart with 2 vectors
   NREBOOT  =      0    no. of reboots
   NMIN     =      0    reboot dimension
   EREF     =   0.00    reference energy to select bands
   IMIX   =      4    mixing-type and parameters
     AMIX     =   0.40;   BMIX     =  1.00
     AMIX_MAG =   1.60;   BMIX_MAG =  1.00
     AMIN     =   0.10
     WC   =   100.;   INIMIX=   1;  MIXPRE=   1;  MAXMIX= -45

 Intra band minimization:
   WEIMIN = 0.0000     energy-eigenvalue tresh-hold
   EBREAK =  0.21E-05  absolut break condition
   DEPER  =   0.30     relativ break condition  

   TIME   =   0.40     timestep for ELM

  volume/ion in A,a.u.               =      38.71       261.24
  Fermi-wavevector in a.u.,A,eV,Ry     =   0.671094  1.268184  6.127619  0.450367
  Thomas-Fermi vector in A             =   1.746810
 
 Write flags
   LWAVE  =      F    write WAVECAR
   LCHARG =      F    write CHGCAR
   LVTOT  =      F    write LOCPOT, total local potential
   LVHAR  =      F    write LOCPOT, Hartree potential only
   LELF   =      F    write electronic localiz. function (ELF)
   LORBIT =      0    0 simple, 1 ext, 2 COOP (PROOUT)


 Dipole corrections
   LMONO  =      F    monopole corrections only (constant potential shift)
   LDIPOL =      F    correct potential (dipole corrections)
   IDIPOL =      0    1-x, 2-y, 3-z, 4-all directions 
   EPSILON=  1.0000000 bulk dielectric constant

 Exchange correlation treatment:
   GGA     =    --    GGA type
   LEXCH   =     8    internal setting for exchange type
   VOSKOWN=      0    Vosko Wilk Nusair interpolation
   LHFCALC =     F    Hartree Fock is set to
   LHFONE  =     F    Hartree Fock one center treatment
   AEXX    =    0.0000 exact exchange contribution

 Linear response parameters
   LEPSILON=     F    determine dielectric tensor
   LRPA    =     F    only Hartree local field effects (RPA)
   LNABLA  =     F    use nabla operator in PAW spheres
   LVEL    =     F    velocity operator in full k-point grid
   LINTERFAST=   F  fast interpolation
   KINTER  =     0    interpolate to denser k-point grid
   CSHIFT  =0.1000    complex shift for real part using Kramers Kronig
   OMEGAMAX=  -1.0    maximum frequency
   DEG_THRESHOLD= 0.2000000E-02 threshold for treating states as degnerate
   RTIME   =    0.100 relaxation time in fs

 Orbital magnetization related:
   ORBITALMAG=     F  switch on orbital magnetization
   LCHIMAG   =     F  perturbation theory with respect to B field
   DQ        =  0.001000  dq finite difference perturbation B field



--------------------------------------------------------------------------------------------------------


 Static calculation
 charge density and potential remain constant during run
 spin polarized calculation
 RMM-DIIS sequential band-by-band
 perform sub-space diagonalisation
    before iterative eigenvector-optimisation
 no mixing
 using additional bands            8
 reciprocal scheme for non local part
 use partial core corrections
 calculate Harris-corrections to forces 
   (improved forces if not selfconsistent)
 use gradient corrections 
 WARNING: stress and forces are not correct
  (second derivative of E(xc) not defined)
 use of overlap-Matrix (Vanderbilt PP)
 Gauss-broadening in eV      SIGMA  =   0.10


--------------------------------------------------------------------------------------------------------


  energy-cutoff  :      420.00
  volume of cell :      116.14
      direct lattice vectors                 reciprocal lattice vectors
     2.589415957 -1.495000000  0.000000000     0.386187471  0.000000000  0.000000000
     0.000000000  2.990000000  0.000000000     0.193093736  0.334448161  0.000000000
     0.000000000  0.000000000 15.000000000     0.000000000  0.000000000  0.066666667

  length of vectors
     2.990000000  2.990000000 15.000000000     0.386187471  0.386187471  0.066666667


 
 k-points in units of 2pi/SCALE and weight: k along high symmetry lines             
   0.00000000  0.00000000  0.00000000       0.016
   0.00964503  0.00556856  0.00000000       0.016
   0.01929006  0.01113712  0.00000000       0.016
   0.02893510  0.01670569  0.00000000       0.016
   0.03858013  0.02227425  0.00000000       0.016
   0.04822516  0.02784281  0.00000000       0.016
   0.05787019  0.03341137  0.00000000       0.016
   0.06751522  0.03897993  0.00000000       0.016
   0.07716026  0.04454849  0.00000000       0.016
   0.08680529  0.05011706  0.00000000       0.016
   0.09645032  0.05568562  0.00000000       0.016
   0.10609535  0.06125418  0.00000000       0.016
   0.11574039  0.06682274  0.00000000       0.016
   0.12538542  0.07239130  0.00000000       0.016
   0.13503045  0.07795987  0.00000000       0.016
   0.14467548  0.08352843  0.00000000       0.016
   0.15432051  0.08909699  0.00000000       0.016
   0.16396555  0.09466555  0.00000000       0.016
   0.17361058  0.10023411  0.00000000       0.016
   0.18325561  0.10580268  0.00000000       0.016
   0.19290064  0.11137124  0.00000000       0.016
   0.19290064  0.11137124  0.00000000       0.016
   0.19291030  0.10580268  0.00000000       0.016
   0.19291995  0.10023411  0.00000000       0.016
   0.19292961  0.09466555  0.00000000       0.016
   0.19293926  0.08909699  0.00000000       0.016
   0.19294892  0.08352843  0.00000000       0.016
   0.19295857  0.07795987  0.00000000       0.016
   0.19296822  0.07239130  0.00000000       0.016
   0.19297788  0.06682274  0.00000000       0.016
   0.19298753  0.06125418  0.00000000       0.016
   0.19299719  0.05568562  0.00000000       0.016
   0.19300684  0.05011706  0.00000000       0.016
   0.19301650  0.04454849  0.00000000       0.016
   0.19302615  0.03897993  0.00000000       0.016
   0.19303581  0.03341137  0.00000000       0.016
   0.19304546  0.02784281  0.00000000       0.016
   0.19305512  0.02227425  0.00000000       0.016
   0.19306477  0.01670569  0.00000000       0.016
   0.19307443  0.01113712  0.00000000       0.016
   0.19308408  0.00556856  0.00000000       0.016
   0.19309374  0.00000000  0.00000000       0.016
   0.19309374  0.00000000  0.00000000       0.016
   0.18343905  0.00000000  0.00000000       0.016
   0.17378436  0.00000000  0.00000000       0.016
   0.16412968  0.00000000  0.00000000       0.016
   0.15447499  0.00000000  0.00000000       0.016
   0.14482030  0.00000000  0.00000000       0.016
   0.13516561  0.00000000  0.00000000       0.016
   0.12551093  0.00000000  0.00000000       0.016
   0.11585624  0.00000000  0.00000000       0.016
   0.10620155  0.00000000  0.00000000       0.016
   0.09654687  0.00000000  0.00000000       0.016
   0.08689218  0.00000000  0.00000000       0.016
   0.07723749  0.00000000  0.00000000       0.016
   0.06758281  0.00000000  0.00000000       0.016
   0.05792812  0.00000000  0.00000000       0.016
   0.04827343  0.00000000  0.00000000       0.016
   0.03861875  0.00000000  0.00000000       0.016
   0.02896406  0.00000000  0.00000000       0.016
   0.01930937  0.00000000  0.00000000       0.016
   0.00965469  0.00000000  0.00000000       0.016
   0.00000000  0.00000000  0.00000000       0.016
 
 k-points in reciprocal lattice and weights: k along high symmetry lines             
   0.00000000  0.00000000  0.00000000       0.016
   0.01665000  0.01665000  0.00000000       0.016
   0.03330000  0.03330000  0.00000000       0.016
   0.04995000  0.04995000  0.00000000       0.016
   0.06660000  0.06660000  0.00000000       0.016
   0.08325000  0.08325000  0.00000000       0.016
   0.09990000  0.09990000  0.00000000       0.016
   0.11655000  0.11655000  0.00000000       0.016
   0.13320000  0.13320000  0.00000000       0.016
   0.14985000  0.14985000  0.00000000       0.016
   0.16650000  0.16650000  0.00000000       0.016
   0.18315000  0.18315000  0.00000000       0.016
   0.19980000  0.19980000  0.00000000       0.016
   0.21645000  0.21645000  0.00000000       0.016
   0.23310000  0.23310000  0.00000000       0.016
   0.24975000  0.24975000  0.00000000       0.016
   0.26640000  0.26640000  0.00000000       0.016
   0.28305000  0.28305000  0.00000000       0.016
   0.29970000  0.29970000  0.00000000       0.016
   0.31635000  0.31635000  0.00000000       0.016
   0.33300000  0.33300000  0.00000000       0.016
   0.33300000  0.33300000  0.00000000       0.016
   0.34135000  0.31635000  0.00000000       0.016
   0.34970000  0.29970000  0.00000000       0.016
   0.35805000  0.28305000  0.00000000       0.016
   0.36640000  0.26640000  0.00000000       0.016
   0.37475000  0.24975000  0.00000000       0.016
   0.38310000  0.23310000  0.00000000       0.016
   0.39145000  0.21645000  0.00000000       0.016
   0.39980000  0.19980000  0.00000000       0.016
   0.40815000  0.18315000  0.00000000       0.016
   0.41650000  0.16650000  0.00000000       0.016
   0.42485000  0.14985000  0.00000000       0.016
   0.43320000  0.13320000  0.00000000       0.016
   0.44155000  0.11655000  0.00000000       0.016
   0.44990000  0.09990000  0.00000000       0.016
   0.45825000  0.08325000  0.00000000       0.016
   0.46660000  0.06660000  0.00000000       0.016
   0.47495000  0.04995000  0.00000000       0.016
   0.48330000  0.03330000  0.00000000       0.016
   0.49165000  0.01665000  0.00000000       0.016
   0.50000000  0.00000000  0.00000000       0.016
   0.50000000  0.00000000  0.00000000       0.016
   0.47500000  0.00000000  0.00000000       0.016
   0.45000000  0.00000000  0.00000000       0.016
   0.42500000  0.00000000  0.00000000       0.016
   0.40000000  0.00000000  0.00000000       0.016
   0.37500000  0.00000000  0.00000000       0.016
   0.35000000  0.00000000  0.00000000       0.016
   0.32500000  0.00000000  0.00000000       0.016
   0.30000000  0.00000000  0.00000000       0.016
   0.27500000  0.00000000  0.00000000       0.016
   0.25000000  0.00000000  0.00000000       0.016
   0.22500000  0.00000000  0.00000000       0.016
   0.20000000  0.00000000  0.00000000       0.016
   0.17500000  0.00000000  0.00000000       0.016
   0.15000000  0.00000000  0.00000000       0.016
   0.12500000  0.00000000  0.00000000       0.016
   0.10000000  0.00000000  0.00000000       0.016
   0.07500000  0.00000000  0.00000000       0.016
   0.05000000  0.00000000  0.00000000       0.016
   0.02500000  0.00000000  0.00000000       0.016
   0.00000000  0.00000000  0.00000000       0.016
 
 position of ions in fractional coordinates (direct lattice) 
   0.28799216  0.63532270  0.82158324
   0.62133226  0.30198258  0.88334344
   0.95464815  0.96863486  0.85246331
 
 position of ions in cartesian coordinates  (Angst):
   0.74573150  1.46906659 12.32374864
   1.60888768 -0.02596383 13.25015165
   2.47198115  1.46901924 12.78694971
 


--------------------------------------------------------------------------------------------------------


 k-point  1 :   0.0000 0.0000 0.0000  plane waves:    2199
 k-point  2 :   0.0167 0.0167 0.0000  plane waves:    2203
 k-point  3 :   0.0333 0.0333 0.0000  plane waves:    2219
 k-point  4 :   0.0500 0.0500 0.0000  plane waves:    2237
 k-point  5 :   0.0666 0.0666 0.0000  plane waves:    2245
 k-point  6 :   0.0833 0.0833 0.0000  plane waves:    2253
 k-point  7 :   0.0999 0.0999 0.0000  plane waves:    2269
 k-point  8 :   0.1166 0.1166 0.0000  plane waves:    2261
 k-point  9 :   0.1332 0.1332 0.0000  plane waves:    2265
 k-point 10 :   0.1499 0.1499 0.0000  plane waves:    2259
 k-point 11 :   0.1665 0.1665 0.0000  plane waves:    2275
 k-point 12 :   0.1832 0.1832 0.0000  plane waves:    2273
 k-point 13 :   0.1998 0.1998 0.0000  plane waves:    2279
 k-point 14 :   0.2165 0.2165 0.0000  plane waves:    2285
 k-point 15 :   0.2331 0.2331 0.0000  plane waves:    2285
 k-point 16 :   0.2498 0.2498 0.0000  plane waves:    2287
 k-point 17 :   0.2664 0.2664 0.0000  plane waves:    2293
 k-point 18 :   0.2831 0.2831 0.0000  plane waves:    2311
 k-point 19 :   0.2997 0.2997 0.0000  plane waves:    2305
 k-point 20 :   0.3164 0.3164 0.0000  plane waves:    2297
 k-point 21 :   0.3330 0.3330 0.0000  plane waves:    2283
 k-point 22 :   0.3330 0.3330 0.0000  plane waves:    2283
 k-point 23 :   0.3414 0.3164 0.0000  plane waves:    2299
 k-point 24 :   0.3497 0.2997 0.0000  plane waves:    2295
 k-point 25 :   0.3581 0.2831 0.0000  plane waves:    2291
 k-point 26 :   0.3664 0.2664 0.0000  plane waves:    2301
 k-point 27 :   0.3748 0.2498 0.0000  plane waves:    2301
 k-point 28 :   0.3831 0.2331 0.0000  plane waves:    2293
 k-point 29 :   0.3915 0.2165 0.0000  plane waves:    2299
 k-point 30 :   0.3998 0.1998 0.0000  plane waves:    2295
 k-point 31 :   0.4082 0.1832 0.0000  plane waves:    2291
 k-point 32 :   0.4165 0.1665 0.0000  plane waves:    2283
 k-point 33 :   0.4249 0.1499 0.0000  plane waves:    2283
 k-point 34 :   0.4332 0.1332 0.0000  plane waves:    2267
 k-point 35 :   0.4415 0.1165 0.0000  plane waves:    2271
 k-point 36 :   0.4499 0.0999 0.0000  plane waves:    2273
 k-point 37 :   0.4583 0.0832 0.0000  plane waves:    2265
 k-point 38 :   0.4666 0.0666 0.0000  plane waves:    2273
 k-point 39 :   0.4749 0.0499 0.0000  plane waves:    2273
 k-point 40 :   0.4833 0.0333 0.0000  plane waves:    2271
 k-point 41 :   0.4917 0.0166 0.0000  plane waves:    2273
 k-point 42 :   0.5000 0.0000 0.0000  plane waves:    2264
 k-point 43 :   0.5000 0.0000 0.0000  plane waves:    2264
 k-point 44 :   0.4750 0.0000 0.0000  plane waves:    2272
 k-point 45 :   0.4500 0.0000 0.0000  plane waves:    2274
 k-point 46 :   0.4250 0.0000 0.0000  plane waves:    2262
 k-point 47 :   0.4000 0.0000 0.0000  plane waves:    2246
 k-point 48 :   0.3750 0.0000 0.0000  plane waves:    2256
 k-point 49 :   0.3500 0.0000 0.0000  plane waves:    2258
 k-point 50 :   0.3250 0.0000 0.0000  plane waves:    2253
 k-point 51 :   0.3000 0.0000 0.0000  plane waves:    2249
 k-point 52 :   0.2750 0.0000 0.0000  plane waves:    2249
 k-point 53 :   0.2500 0.0000 0.0000  plane waves:    2241
 k-point 54 :   0.2250 0.0000 0.0000  plane waves:    2245
 k-point 55 :   0.2000 0.0000 0.0000  plane waves:    2237
 k-point 56 :   0.1750 0.0000 0.0000  plane waves:    2245
 k-point 57 :   0.1500 0.0000 0.0000  plane waves:    2239
 k-point 58 :   0.1250 0.0000 0.0000  plane waves:    2243
 k-point 59 :   0.1000 0.0000 0.0000  plane waves:    2239
 k-point 60 :   0.0750 0.0000 0.0000  plane waves:    2239
 k-point 61 :   0.0500 0.0000 0.0000  plane waves:    2221
 k-point 62 :   0.0250 0.0000 0.0000  plane waves:    2201
 k-point 63 :   0.0000 0.0000 0.0000  plane waves:    2199

 maximum and minimum number of plane-waves per node :       588      549

 maximum number of plane-waves:      2311
 maximum index in each direction: 
   IXMAX=    4   IYMAX=    4   IZMAX=   25
   IXMIN=   -5   IYMIN=   -5   IZMIN=  -25

 NGX is ok and might be reduce to  20
 NGY is ok and might be reduce to  20
 WARNING: aliasing errors must be expected set NGZ to 102 to avoid them
 aliasing errors are usually negligible using standard VASP settings
 and one can safely disregard these warnings

 parallel 3D FFT for wavefunctions:
    minimum data exchange during FFTs selected (reduces bandwidth)
 parallel 3D FFT for charge:
    minimum data exchange during FFTs selected (reduces bandwidth)


 total amount of memory used by VASP on root node    42033. kBytes
========================================================================

   base      :      30000. kBytes
   nonl-proj :       4672. kBytes
   fftplans  :       1085. kBytes
   grid      :       2738. kBytes
   one-center:          6. kBytes
   wavefun   :       3532. kBytes
 
 initial charge density was supplied:
 number of electron       8.0000000 magnetization      -0.0003297
 keeping initial charge density in first step


--------------------------------------------------------------------------------------------------------


 Maximum index for augmentation-charges          823 (set IRDMAX)


--------------------------------------------------------------------------------------------------------


 First call to EWALD:  gamma=   0.363
 Maximum number of real-space cells 5x 5x 1
 Maximum number of reciprocal cells 2x 2x 7

 FEWALD executed in parallel
    FEWALD:  cpu time    0.00: real time    0.00


----------------------------------------- Iteration    1(   1)  ---------------------------------------


    POTLOK:  cpu time    0.08: real time    0.09
    SETDIJ:  cpu time    0.01: real time    0.01
    EDDIAG:  cpu time    0.55: real time    0.55
  RMM-DIIS:  cpu time    0.81: real time    0.81
    ORTHCH:  cpu time    0.04: real time    0.04
       DOS:  cpu time    0.01: real time    0.01
    --------------------------------------------
      LOOP:  cpu time    1.50: real time    1.51

 eigenvalue-minimisations  :  1512
 total energy-change (2. order) : 0.4314339E+02  (-0.1043921E+03)
 number of electron       8.0000000 magnetization      -0.0003297
 augmentation part        8.0000000 magnetization      -0.0003297

 Free energy of the ion-electron system (eV)
  ---------------------------------------------------
  alpha Z        PSCENC =         2.61803475
  Ewald energy   TEWEN  =       508.81847817
  -1/2 Hartree   DENC   =      -694.42904543
  -exchange  EXHF       =         0.00000000
  -V(xc)+E(xc)   XCENC  =        21.25014631
  PAW double counting   =       504.08714497     -503.63677903
  entropy T*S    EENTRO =        -0.00574949
  eigenvalues    EBANDS =         2.34604503
  atomic energy  EATOM  =       202.09511676
  ---------------------------------------------------
  free energy    TOTEN  =        43.14339204 eV

  energy without entropy =       43.14914153  energy(sigma->0) =       43.14626679


--------------------------------------------------------------------------------------------------------




----------------------------------------- Iteration    1(   2)  ---------------------------------------


    EDDIAG:  cpu time    0.55: real time    0.55
  RMM-DIIS:  cpu time    0.76: real time    0.76
    ORTHCH:  cpu time    0.04: real time    0.04
       DOS:  cpu time    0.00: real time    0.01
    --------------------------------------------
      LOOP:  cpu time    1.36: real time    1.37

 eigenvalue-minimisations  :  1512
 total energy-change (2. order) :-0.3330003E+02  (-0.3248030E+02)
 number of electron       8.0000000 magnetization      -0.0003297
 augmentation part        8.0000000 magnetization      -0.0003297

 Free energy of the ion-electron system (eV)
  ---------------------------------------------------
  alpha Z        PSCENC =         2.61803475
  Ewald energy   TEWEN  =       508.81847817
  -1/2 Hartree   DENC   =      -694.42904543
  -exchange  EXHF       =         0.00000000
  -V(xc)+E(xc)   XCENC  =        21.25014631
  PAW double counting   =       504.08714497     -503.63677903
  entropy T*S    EENTRO =        -0.00746175
  eigenvalues    EBANDS =       -30.95227734
  atomic energy  EATOM  =       202.09511676
  ---------------------------------------------------
  free energy    TOTEN  =         9.84335741 eV

  energy without entropy =        9.85081916  energy(sigma->0) =        9.84708829


--------------------------------------------------------------------------------------------------------




----------------------------------------- Iteration    1(   3)  ---------------------------------------


    EDDIAG:  cpu time    0.53: real time    0.54
  RMM-DIIS:  cpu time    0.76: real time    0.76
    ORTHCH:  cpu time    0.04: real time    0.04
       DOS:  cpu time    0.01: real time    0.01
    --------------------------------------------
      LOOP:  cpu time    1.35: real time    1.35

 eigenvalue-minimisations  :  1512
 total energy-change (2. order) :-0.1472921E+02  (-0.1051075E+02)
 number of electron       8.0000000 magnetization      -0.0003297
 augmentation part        8.0000000 magnetization      -0.0003297

 Free energy of the ion-electron system (eV)
  ---------------------------------------------------
  alpha Z        PSCENC =         2.61803475
  Ewald energy   TEWEN  =       508.81847817
  -1/2 Hartree   DENC   =      -694.42904543
  -exchange  EXHF       =         0.00000000
  -V(xc)+E(xc)   XCENC  =        21.25014631
  PAW double counting   =       504.08714497     -503.63677903
  entropy T*S    EENTRO =        -0.00505462
  eigenvalues    EBANDS =       -45.68389765
  atomic energy  EATOM  =       202.09511676
  ---------------------------------------------------
  free energy    TOTEN  =        -4.88585576 eV

  energy without entropy =       -4.88080115  energy(sigma->0) =       -4.88332846


--------------------------------------------------------------------------------------------------------




----------------------------------------- Iteration    1(   4)  ---------------------------------------


    EDDIAG:  cpu time    0.53: real time    0.53
  RMM-DIIS:  cpu time    0.76: real time    0.77
    ORTHCH:  cpu time    0.04: real time    0.04
       DOS:  cpu time    0.00: real time    0.01
    --------------------------------------------
      LOOP:  cpu time    1.35: real time    1.35

 eigenvalue-minimisations  :  1512
 total energy-change (2. order) :-0.7132850E+01  (-0.4538760E+01)
 number of electron       8.0000000 magnetization      -0.0003297
 augmentation part        8.0000000 magnetization      -0.0003297

 Free energy of the ion-electron system (eV)
  ---------------------------------------------------
  alpha Z        PSCENC =         2.61803475
  Ewald energy   TEWEN  =       508.81847817
  -1/2 Hartree   DENC   =      -694.42904543
  -exchange  EXHF       =         0.00000000
  -V(xc)+E(xc)   XCENC  =        21.25014631
  PAW double counting   =       504.08714497     -503.63677903
  entropy T*S    EENTRO =        -0.00460559
  eigenvalues    EBANDS =       -52.81719685
  atomic energy  EATOM  =       202.09511676
  ---------------------------------------------------
  free energy    TOTEN  =       -12.01870594 eV

  energy without entropy =      -12.01410034  energy(sigma->0) =      -12.01640314


--------------------------------------------------------------------------------------------------------




----------------------------------------- Iteration    1(   5)  ---------------------------------------


    EDDIAG:  cpu time    0.53: real time    0.53
  RMM-DIIS:  cpu time    0.78: real time    0.78
    ORTHCH:  cpu time    0.04: real time    0.04
       DOS:  cpu time    0.00: real time    0.01
    --------------------------------------------
      LOOP:  cpu time    1.36: real time    1.46

 eigenvalue-minimisations  :  1512
 total energy-change (2. order) :-0.2249670E+01  (-0.1486069E+01)
 number of electron       8.0000000 magnetization      -0.0003297
 augmentation part        8.0000000 magnetization      -0.0003297

 Free energy of the ion-electron system (eV)
  ---------------------------------------------------
  alpha Z        PSCENC =         2.61803475
  Ewald energy   TEWEN  =       508.81847817
  -1/2 Hartree   DENC   =      -694.42904543
  -exchange  EXHF       =         0.00000000
  -V(xc)+E(xc)   XCENC  =        21.25014631
  PAW double counting   =       504.08714497     -503.63677903
  entropy T*S    EENTRO =        -0.00178730
  eigenvalues    EBANDS =       -55.06968466
  atomic energy  EATOM  =       202.09511676
  ---------------------------------------------------
  free energy    TOTEN  =       -14.26837545 eV

  energy without entropy =      -14.26658816  energy(sigma->0) =      -14.26748180


--------------------------------------------------------------------------------------------------------




----------------------------------------- Iteration    1(   6)  ---------------------------------------


    EDDIAG:  cpu time    0.53: real time    0.54
  RMM-DIIS:  cpu time    0.78: real time    0.78
    ORTHCH:  cpu time    0.04: real time    0.05
       DOS:  cpu time    0.00: real time    0.00
    --------------------------------------------
      LOOP:  cpu time    1.36: real time    1.38

 eigenvalue-minimisations  :  1512
 total energy-change (2. order) :-0.7156922E+00  (-0.5107766E+00)
 number of electron       8.0000000 magnetization      -0.0003297
 augmentation part        8.0000000 magnetization      -0.0003297

 Free energy of the ion-electron system (eV)
  ---------------------------------------------------
  alpha Z        PSCENC =         2.61803475
  Ewald energy   TEWEN  =       508.81847817
  -1/2 Hartree   DENC   =      -694.42904543
  -exchange  EXHF       =         0.00000000
  -V(xc)+E(xc)   XCENC  =        21.25014631
  PAW double counting   =       504.08714497     -503.63677903
  entropy T*S    EENTRO =        -0.00000019
  eigenvalues    EBANDS =       -55.78716394
  atomic energy  EATOM  =       202.09511676
  ---------------------------------------------------
  free energy    TOTEN  =       -14.98406763 eV

  energy without entropy =      -14.98406744  energy(sigma->0) =      -14.98406754


--------------------------------------------------------------------------------------------------------




----------------------------------------- Iteration    1(   7)  ---------------------------------------


    EDDIAG:  cpu time    0.53: real time    0.53
  RMM-DIIS:  cpu time    0.77: real time    0.78
    ORTHCH:  cpu time    0.04: real time    0.04
       DOS:  cpu time    0.00: real time    0.00
    --------------------------------------------
      LOOP:  cpu time    1.35: real time    1.36

 eigenvalue-minimisations  :  1512
 total energy-change (2. order) :-0.2111143E+00  (-0.1896718E+00)
 number of electron       8.0000000 magnetization      -0.0003297
 augmentation part        8.0000000 magnetization      -0.0003297

 Free energy of the ion-electron system (eV)
  ---------------------------------------------------
  alpha Z        PSCENC =         2.61803475
  Ewald energy   TEWEN  =       508.81847817
  -1/2 Hartree   DENC   =      -694.42904543
  -exchange  EXHF       =         0.00000000
  -V(xc)+E(xc)   XCENC  =        21.25014631
  PAW double counting   =       504.08714497     -503.63677903
  entropy T*S    EENTRO =        -0.00000000
  eigenvalues    EBANDS =       -55.99827840
  atomic energy  EATOM  =       202.09511676
  ---------------------------------------------------
  free energy    TOTEN  =       -15.19518190 eV

  energy without entropy =      -15.19518190  energy(sigma->0) =      -15.19518190


--------------------------------------------------------------------------------------------------------




----------------------------------------- Iteration    1(   8)  ---------------------------------------


    EDDIAG:  cpu time    0.53: real time    0.53
  RMM-DIIS:  cpu time    0.78: real time    0.78
    ORTHCH:  cpu time    0.04: real time    0.04
       DOS:  cpu time    0.00: real time    0.00
    --------------------------------------------
      LOOP:  cpu time    1.36: real time    1.36

 eigenvalue-minimisations  :  1512
 total energy-change (2. order) :-0.7174561E-01  (-0.6522709E-01)
 number of electron       8.0000000 magnetization      -0.0003297
 augmentation part        8.0000000 magnetization      -0.0003297

 Free energy of the ion-electron system (eV)
  ---------------------------------------------------
  alpha Z        PSCENC =         2.61803475
  Ewald energy   TEWEN  =       508.81847817
  -1/2 Hartree   DENC   =      -694.42904543
  -exchange  EXHF       =         0.00000000
  -V(xc)+E(xc)   XCENC  =        21.25014631
  PAW double counting   =       504.08714497     -503.63677903
  entropy T*S    EENTRO =        -0.00000000
  eigenvalues    EBANDS =       -56.07002401
  atomic energy  EATOM  =       202.09511676
  ---------------------------------------------------
  free energy    TOTEN  =       -15.26692750 eV

  energy without entropy =      -15.26692750  energy(sigma->0) =      -15.26692750


--------------------------------------------------------------------------------------------------------




----------------------------------------- Iteration    1(   9)  ---------------------------------------


    EDDIAG:  cpu time    0.54: real time    0.54
  RMM-DIIS:  cpu time    2.10: real time    2.11
    ORTHCH:  cpu time    0.04: real time    0.05
       DOS:  cpu time    0.00: real time    0.00
    --------------------------------------------
      LOOP:  cpu time    2.69: real time    2.70

 eigenvalue-minimisations  :  4524
 total energy-change (2. order) :-0.3520374E-01  (-0.3365718E-01)
 number of electron       8.0000000 magnetization      -0.0003297
 augmentation part        8.0000000 magnetization      -0.0003297

 Free energy of the ion-electron system (eV)
  ---------------------------------------------------
  alpha Z        PSCENC =         2.61803475
  Ewald energy   TEWEN  =       508.81847817
  -1/2 Hartree   DENC   =      -694.42904543
  -exchange  EXHF       =         0.00000000
  -V(xc)+E(xc)   XCENC  =        21.25014631
  PAW double counting   =       504.08714497     -503.63677903
  entropy T*S    EENTRO =        -0.00000000
  eigenvalues    EBANDS =       -56.10522775
  atomic energy  EATOM  =       202.09511676
  ---------------------------------------------------
  free energy    TOTEN  =       -15.30213125 eV

  energy without entropy =      -15.30213125  energy(sigma->0) =      -15.30213125


--------------------------------------------------------------------------------------------------------




----------------------------------------- Iteration    1(  10)  ---------------------------------------


    EDDIAG:  cpu time    0.54: real time    0.55
  RMM-DIIS:  cpu time    2.22: real time    2.23
    ORTHCH:  cpu time    0.04: real time    0.04
       DOS:  cpu time    0.00: real time    0.00
    --------------------------------------------
      LOOP:  cpu time    2.82: real time    2.82

 eigenvalue-minimisations  :  4811
 total energy-change (2. order) :-0.4597984E-02  (-0.3694689E-02)
 number of electron       8.0000000 magnetization      -0.0003297
 augmentation part        8.0000000 magnetization      -0.0003297

 Free energy of the ion-electron system (eV)
  ---------------------------------------------------
  alpha Z        PSCENC =         2.61803475
  Ewald energy   TEWEN  =       508.81847817
  -1/2 Hartree   DENC   =      -694.42904543
  -exchange  EXHF       =         0.00000000
  -V(xc)+E(xc)   XCENC  =        21.25014631
  PAW double counting   =       504.08714497     -503.63677903
  entropy T*S    EENTRO =        -0.00000000
  eigenvalues    EBANDS =       -56.10982573
  atomic energy  EATOM  =       202.09511676
  ---------------------------------------------------
  free energy    TOTEN  =       -15.30672923 eV

  energy without entropy =      -15.30672923  energy(sigma->0) =      -15.30672923


--------------------------------------------------------------------------------------------------------




----------------------------------------- Iteration    1(  11)  ---------------------------------------


    EDDIAG:  cpu time    0.54: real time    0.55
  RMM-DIIS:  cpu time    2.13: real time    2.16
    ORTHCH:  cpu time    0.04: real time    0.04
       DOS:  cpu time    0.00: real time    0.00
    --------------------------------------------
      LOOP:  cpu time    2.73: real time    2.76

 eigenvalue-minimisations  :  4359
 total energy-change (2. order) :-0.1790520E-03  (-0.1519363E-03)
 number of electron       8.0000000 magnetization      -0.0003297
 augmentation part        8.0000000 magnetization      -0.0003297

 Free energy of the ion-electron system (eV)
  ---------------------------------------------------
  alpha Z        PSCENC =         2.61803475
  Ewald energy   TEWEN  =       508.81847817
  -1/2 Hartree   DENC   =      -694.42904543
  -exchange  EXHF       =         0.00000000
  -V(xc)+E(xc)   XCENC  =        21.25014631
  PAW double counting   =       504.08714497     -503.63677903
  entropy T*S    EENTRO =        -0.00000000
  eigenvalues    EBANDS =       -56.11000478
  atomic energy  EATOM  =       202.09511676
  ---------------------------------------------------
  free energy    TOTEN  =       -15.30690828 eV

  energy without entropy =      -15.30690828  energy(sigma->0) =      -15.30690828


--------------------------------------------------------------------------------------------------------




----------------------------------------- Iteration    1(  12)  ---------------------------------------


    EDDIAG:  cpu time    0.54: real time    0.55
  RMM-DIIS:  cpu time    1.94: real time    1.96
    ORTHCH:  cpu time    0.04: real time    0.04
       DOS:  cpu time    0.00: real time    0.00
    --------------------------------------------
      LOOP:  cpu time    2.53: real time    2.56

 eigenvalue-minimisations  :  3640
 total energy-change (2. order) :-0.2695632E-04  (-0.2562182E-04)
 number of electron       8.0000000 magnetization      -0.0003297
 augmentation part        8.0000000 magnetization      -0.0003297

 Free energy of the ion-electron system (eV)
  ---------------------------------------------------
  alpha Z        PSCENC =         2.61803475
  Ewald energy   TEWEN  =       508.81847817
  -1/2 Hartree   DENC   =      -694.42904543
  -exchange  EXHF       =         0.00000000
  -V(xc)+E(xc)   XCENC  =        21.25014631
  PAW double counting   =       504.08714497     -503.63677903
  entropy T*S    EENTRO =        -0.00000000
  eigenvalues    EBANDS =       -56.11003174
  atomic energy  EATOM  =       202.09511676
  ---------------------------------------------------
  free energy    TOTEN  =       -15.30693524 eV

  energy without entropy =      -15.30693524  energy(sigma->0) =      -15.30693524


--------------------------------------------------------------------------------------------------------




----------------------------------------- Iteration    1(  13)  ---------------------------------------


    EDDIAG:  cpu time    0.54: real time    0.55
  RMM-DIIS:  cpu time    1.73: real time    1.75
    ORTHCH:  cpu time    0.04: real time    0.04
       DOS:  cpu time    0.00: real time    0.00
    --------------------------------------------
      LOOP:  cpu time    2.32: real time    2.35

 eigenvalue-minimisations  :  3131
 total energy-change (2. order) :-0.1493195E-05  (-0.1262533E-05)
 number of electron       8.0000000 magnetization      -0.0003297
 augmentation part        8.0000000 magnetization      -0.0003297

 Free energy of the ion-electron system (eV)
  ---------------------------------------------------
  alpha Z        PSCENC =         2.61803475
  Ewald energy   TEWEN  =       508.81847817
  -1/2 Hartree   DENC   =      -694.42904543
  -exchange  EXHF       =         0.00000000
  -V(xc)+E(xc)   XCENC  =        21.25014631
  PAW double counting   =       504.08714497     -503.63677903
  entropy T*S    EENTRO =        -0.00000000
  eigenvalues    EBANDS =       -56.11003323
  atomic energy  EATOM  =       202.09511676
  ---------------------------------------------------
  free energy    TOTEN  =       -15.30693673 eV

  energy without entropy =      -15.30693673  energy(sigma->0) =      -15.30693673


--------------------------------------------------------------------------------------------------------




 average (electrostatic) potential at core
  the test charge radii are     0.9943  0.6991
  (the norm of the test charge is              1.0000)
       1 -40.9094       2 -40.9091       3 -54.8592
 
 
 
 E-fermi :  -1.4287     XC(G=0):  -3.0309     alpha+bet : -3.0548


 spin component 1

 k-point   1 :       0.0000    0.0000    0.0000
  band No.  band energies     occupation 
      1     -14.4849      1.00000
      2      -6.1301      1.00000
      3      -1.9394      1.00000
      4      -1.9391      1.00000
      5      -0.3730      0.00000
      6       1.6369      0.00000
      7       2.2658      0.00000
      8       3.5197      0.00000
      9       3.5200      0.00000
     10       4.2153      0.00000
     11       4.2967      0.00000
     12       8.2624      0.00000

 k-point   2 :       0.0167    0.0167    0.0000
  band No.  band energies     occupation 
      1     -14.4741      1.00000
      2      -6.1164      1.00000
      3      -2.0196      1.00000
      4      -1.9860      1.00000
      5      -0.3545      0.00000
      6       1.6517      0.00000
      7       2.2842      0.00000
      8       3.5664      0.00000
      9       3.5938      0.00000
     10       4.2324      0.00000
     11       4.3145      0.00000
     12       7.2717      0.00000

 k-point   3 :       0.0333    0.0333    0.0000
  band No.  band energies     occupation 
      1     -14.4417      1.00000
      2      -6.0754      1.00000
      3      -2.2457      1.00000
      4      -2.1200      1.00000
      5      -0.3002      0.00000
      6       1.6967      0.00000
      7       2.3395      0.00000
      8       3.6982      0.00000
      9       3.7994      0.00000
     10       4.2848      0.00000
     11       4.3678      0.00000
     12       7.1494      0.00000

 k-point   4 :       0.0500    0.0500    0.0000
  band No.  band energies     occupation 
      1     -14.3879      1.00000
      2      -6.0078      1.00000
      3      -2.5819      1.00000
      4      -2.3269      1.00000
      5      -0.2116      0.00000
      6       1.7725      0.00000
      7       2.4313      0.00000
      8       3.8923      0.00000
      9       4.0987      0.00000
     10       4.3766      0.00000
     11       4.4576      0.00000
     12       8.2272      0.00000

 k-point   5 :       0.0666    0.0666    0.0000
  band No.  band energies     occupation 
      1     -14.3129      1.00000
      2      -5.9149      1.00000
      3      -2.9910      1.00000
      4      -2.5872      1.00000
      5      -0.0897      0.00000
      6       1.8790      0.00000
      7       2.5597      0.00000
      8       4.1114      0.00000
      9       4.4435      0.00000
     10       4.5201      0.00000
     11       4.5907      0.00000
     12       8.4824      0.00000

 k-point   6 :       0.0833    0.0833    0.0000
  band No.  band energies     occupation 
      1     -14.2171      1.00000
      2      -5.7988      1.00000
      3      -3.4432      1.00000
      4      -2.8820      1.00000
      5       0.0651      0.00000
      6       2.0144      0.00000
      7       2.7246      0.00000
      8       4.3088      0.00000
      9       4.7097      0.00000
     10       4.7333      0.00000
     11       4.8570      0.00000
     12       6.8937      0.00000

 k-point   7 :       0.0999    0.0999    0.0000
  band No.  band energies     occupation 
      1     -14.1011      1.00000
      2      -5.6637      1.00000
      3      -3.9170      1.00000
      4      -3.1937      1.00000
      5       0.2524      0.00000
      6       2.1748      0.00000
      7       2.9256      0.00000
      8       4.4583      0.00000
      9       4.9079      0.00000
     10       5.0100      0.00000
     11       5.2225      0.00000
     12       9.2007      0.00000

 k-point   8 :       0.1166    0.1166    0.0000
  band No.  band energies     occupation 
      1     -13.9657      1.00000
      2      -5.5171      1.00000
      3      -4.3966      1.00000
      4      -3.5040      1.00000
      5       0.4716      0.00000
      6       2.3528      0.00000
      7       3.1625      0.00000
      8       4.5557      0.00000
      9       5.1283      0.00000
     10       5.3192      0.00000
     11       5.5813      0.00000
     12       9.9254      0.00000

 k-point   9 :       0.1332    0.1332    0.0000
  band No.  band energies     occupation 
      1     -13.8119      1.00000
      2      -5.3757      1.00000
      3      -4.8715      1.00000
      4      -3.7894      1.00000
      5       0.7214      0.00000
      6       2.5337      0.00000
      7       3.4347      0.00000
      8       4.5925      0.00000
      9       5.3741      0.00000
     10       5.6413      0.00000
     11       6.5865      0.00000
     12       7.6313      0.00000

 k-point  10 :       0.1499    0.1499    0.0000
  band No.  band energies     occupation 
      1     -13.6411      1.00000
      2      -5.3334      1.00000
      3      -5.2758      1.00000
      4      -4.0090      1.00000
      5       1.0001      0.00000
      6       2.6903      0.00000
      7       3.7412      0.00000
      8       4.5813      0.00000
      9       5.6304      0.00000
     10       6.1605      0.00000
     11       6.7862      0.00000
     12      10.3095      0.00000

 k-point  11 :       0.1665    0.1665    0.0000
  band No.  band energies     occupation 
      1     -13.4552      1.00000
      2      -5.7756      1.00000
      3      -5.2803      1.00000
      4      -4.0978      1.00000
      5       1.3047      0.00000
      6       2.7769      0.00000
      7       4.0795      0.00000
      8       4.5813      0.00000
      9       5.8645      0.00000
     10       6.2473      0.00000
     11       6.7710      0.00000
     12       7.1373      0.00000

 k-point  12 :       0.1832    0.1832    0.0000
  band No.  band energies     occupation 
      1     -13.2568      1.00000
      2      -6.1918      1.00000
      3      -5.4195      1.00000
      4      -4.0250      1.00000
      5       1.6303      0.00000
      6       2.7486      0.00000
      7       4.4439      0.00000
      8       4.6774      0.00000
      9       5.9712      0.00000
     10       6.5510      0.00000
     11       6.7118      0.00000
     12       7.3143      0.00000

 k-point  13 :       0.1998    0.1998    0.0000
  band No.  band energies     occupation 
      1     -13.0493      1.00000
      2      -6.5764      1.00000
      3      -5.6456      1.00000
      4      -3.8405      1.00000
      5       1.9678      0.00000
      6       2.6069      0.00000
      7       4.8147      0.00000
      8       4.9024      0.00000
      9       5.8979      0.00000
     10       6.8958      0.00000
     11       7.3410      0.00000
     12      11.2472      0.00000

 k-point  14 :       0.2165    0.2165    0.0000
  band No.  band energies     occupation 
      1     -12.8374      1.00000
      2      -6.9230      1.00000
      3      -5.9064      1.00000
      4      -3.6008      1.00000
      5       2.3007      0.00000
      6       2.3990      0.00000
      7       5.1063      0.00000
      8       5.2360      0.00000
      9       5.8379      0.00000
     10       7.2086      0.00000
     11       7.3494      0.00000
     12       8.0214      0.00000

 k-point  15 :       0.2331    0.2331    0.0000
  band No.  band energies     occupation 
      1     -12.6273      1.00000
      2      -7.2242      1.00000
      3      -6.1753      1.00000
      4      -3.3390      1.00000
      5       2.1753      0.00000
      6       2.5975      0.00000
      7       5.1564      0.00000
      8       5.6497      0.00000
      9       6.0742      0.00000
     10       7.3992      0.00000
     11       7.7601      0.00000
     12       8.3830      0.00000

 k-point  16 :       0.2498    0.2498    0.0000
  band No.  band energies     occupation 
      1     -12.4271      1.00000
      2      -7.4715      1.00000
      3      -6.4405      1.00000
      4      -3.0773      1.00000
      5       1.9738      0.00000
      6       2.8052      0.00000
      7       5.1338      0.00000
      8       6.1234      0.00000
      9       6.5267      0.00000
     10       7.4971      0.00000
     11       8.1811      0.00000
     12       8.7974      0.00000

 k-point  17 :       0.2664    0.2664    0.0000
  band No.  band energies     occupation 
      1     -12.2466      1.00000
      2      -7.6548      1.00000
      3      -6.6960      1.00000
      4      -2.8350      1.00000
      5       1.8236      0.00000
      6       2.8679      0.00000
      7       5.2422      0.00000
      8       6.6449      0.00000
      9       7.0591      0.00000
     10       7.4942      0.00000
     11       8.5777      0.00000
     12       9.2775      0.00000

 k-point  18 :       0.2831    0.2831    0.0000
  band No.  band energies     occupation 
      1     -12.0965      1.00000
      2      -7.7638      1.00000
      3      -6.9388      1.00000
      4      -2.6309      1.00000
      5       1.7485      0.00000
      6       2.7812      0.00000
      7       5.5229      0.00000
      8       7.1973      0.00000
      9       7.3920      0.00000
     10       7.6278      0.00000
     11       8.5725      0.00000
     12       9.4661      0.00000

 k-point  19 :       0.2997    0.2997    0.0000
  band No.  band energies     occupation 
      1     -11.9862      1.00000
      2      -7.7895      1.00000
      3      -7.1669      1.00000
      4      -2.4805      1.00000
      5       1.7663      0.00000
      6       2.5950      0.00000
      7       5.9301      0.00000
      8       7.1954      0.00000
      9       7.8029      0.00000
     10       8.0457      0.00000
     11       8.4371      0.00000
     12       9.6828      0.00000

 k-point  20 :       0.3164    0.3164    0.0000
  band No.  band energies     occupation 
      1     -11.9211      1.00000
      2      -7.7280      1.00000
      3      -7.3792      1.00000
      4      -2.3925      1.00000
      5       1.8844      0.00000
      6       2.3600      0.00000
      7       6.3916      0.00000
      8       6.9853      0.00000
      9       7.8225      0.00000
     10       8.3795      0.00000
     11       8.9906      0.00000
     12       9.5086      0.00000

 k-point  21 :       0.3330    0.3330    0.0000
  band No.  band energies     occupation 
      1     -11.9001      1.00000
      2      -7.5821      1.00000
      3      -7.5747      1.00000
      4      -2.3646      1.00000
      5       2.0968      0.00000
      6       2.1070      0.00000
      7       6.7629      0.00000
      8       6.7713      0.00000
      9       7.6490      0.00000
     10       8.7681      0.00000
     11       9.4351      0.00000
     12       9.6347      0.00000

 k-point  22 :       0.3330    0.3330    0.0000
  band No.  band energies     occupation 
      1     -11.9001      1.00000
      2      -7.5821      1.00000
      3      -7.5747      1.00000
      4      -2.3646      1.00000
      5       2.0968      0.00000
      6       2.1070      0.00000
      7       6.7629      0.00000
      8       6.7713      0.00000
      9       7.6490      0.00000
     10       8.6952      0.00000
     11       9.4770      0.00000
     12       9.5649      0.00000

 k-point  23 :       0.3414    0.3164    0.0000
  band No.  band energies     occupation 
      1     -11.9048      1.00000
      2      -7.6715      1.00000
      3      -7.4738      1.00000
      4      -2.3707      1.00000
      5       1.9715      0.00000
      6       2.2417      0.00000
      7       6.6636      0.00000
      8       6.8089      0.00000
      9       7.7124      0.00000
     10       8.6612      0.00000
     11       9.2908      0.00000
     12       9.5247      0.00000

 k-point  24 :       0.3497    0.2997    0.0000
  band No.  band energies     occupation 
      1     -11.9175      1.00000
      2      -7.7582      1.00000
      3      -7.3541      1.00000
      4      -2.3869      1.00000
      5       1.8446      0.00000
      6       2.3948      0.00000
      7       6.5694      0.00000
      8       6.7446      0.00000
      9       7.8686      0.00000
     10       8.5378      0.00000
     11       9.0671      0.00000
     12       9.3521      0.00000

 k-point  25 :       0.3581    0.2831    0.0000
  band No.  band energies     occupation 
      1     -11.9369      1.00000
      2      -7.8405      1.00000
      3      -7.2193      1.00000
      4      -2.4112      1.00000
      5       1.7195      0.00000
      6       2.5600      0.00000
      7       6.4841      0.00000
      8       6.6259      0.00000
      9       8.0399      0.00000
     10       8.4228      0.00000
     11       8.9915      0.00000
     12       9.2072      0.00000

 k-point  26 :       0.3664    0.2664    0.0000
  band No.  band energies     occupation 
      1     -11.9617      1.00000
      2      -7.9183      1.00000
      3      -7.0714      1.00000
      4      -2.4419      1.00000
      5       1.5967      0.00000
      6       2.7338      0.00000
      7       6.4096      0.00000
      8       6.4834      0.00000
      9       8.1354      0.00000
     10       8.3060      0.00000
     11       8.8194      0.00000
     12       9.1529      0.00000

 k-point  27 :       0.3748    0.2498    0.0000
  band No.  band energies     occupation 
      1     -11.9905      1.00000
      2      -7.9916      1.00000
      3      -6.9125      1.00000
      4      -2.4771      1.00000
      5       1.4767      0.00000
      6       2.9118      0.00000
      7       6.3271      0.00000
      8       6.3502      0.00000
      9       8.0799      0.00000
     10       8.2094      0.00000
     11       8.8216      0.00000
     12       9.0390      0.00000

 k-point  28 :       0.3831    0.2331    0.0000
  band No.  band energies     occupation 
      1     -12.0220      1.00000
      2      -8.0604      1.00000
      3      -6.7447      1.00000
      4      -2.5151      1.00000
      5       1.3598      0.00000
      6       3.0899      0.00000
      7       6.1668      0.00000
      8       6.3028      0.00000
      9       7.8799      0.00000
     10       8.0885      0.00000
     11       8.5302      0.00000
     12       8.7450      0.00000

 k-point  29 :       0.3915    0.2165    0.0000
  band No.  band energies     occupation 
      1     -12.0553      1.00000
      2      -8.1246      1.00000
      3      -6.5702      1.00000
      4      -2.5548      1.00000
      5       1.2460      0.00000
      6       3.2634      0.00000
      7       5.9994      0.00000
      8       6.2734      0.00000
      9       7.6581      0.00000
     10       7.9944      0.00000
     11       8.4814      0.00000
     12       8.8326      0.00000

 k-point  30 :       0.3998    0.1998    0.0000
  band No.  band energies     occupation 
      1     -12.0892      1.00000
      2      -8.1841      1.00000
      3      -6.3910      1.00000
      4      -2.5949      1.00000
      5       1.1357      0.00000
      6       3.4278      0.00000
      7       5.8266      0.00000
      8       6.2631      0.00000
      9       7.8759      0.00000
     10       8.2572      0.00000
     11       8.5083      0.00000
     12       8.7851      0.00000

 k-point  31 :       0.4082    0.1832    0.0000
  band No.  band energies     occupation 
      1     -12.1230      1.00000
      2      -8.2390      1.00000
      3      -6.2095      1.00000
      4      -2.6344      1.00000
      5       1.0289      0.00000
      6       3.5787      0.00000
      7       5.6487      0.00000
      8       6.2720      0.00000
      9       7.2164      0.00000
     10       7.8407      0.00000
     11       8.2585      0.00000
     12       8.5074      0.00000

 k-point  32 :       0.4165    0.1665    0.0000
  band No.  band energies     occupation 
      1     -12.1559      1.00000
      2      -8.2892      1.00000
      3      -6.0281      1.00000
      4      -2.6726      1.00000
      5       0.9260      0.00000
      6       3.7126      0.00000
      7       5.4673      0.00000
      8       6.3003      0.00000
      9       7.0219      0.00000
     10       7.8214      0.00000
     11       8.1810      0.00000
     12       8.5266      0.00000

 k-point  33 :       0.4249    0.1499    0.0000
  band No.  band energies     occupation 
      1     -12.1872      1.00000
      2      -8.3347      1.00000
      3      -5.8493      1.00000
      4      -2.7088      1.00000
      5       0.8272      0.00000
      6       3.8268      0.00000
      7       5.2849      0.00000
      8       6.3450      0.00000
      9       6.8491      0.00000
     10       7.7462      0.00000
     11       8.0848      0.00000
     12       8.3684      0.00000

 k-point  34 :       0.4332    0.1332    0.0000
  band No.  band energies     occupation 
      1     -12.2165      1.00000
      2      -8.3755      1.00000
      3      -5.6759      1.00000
      4      -2.7422      1.00000
      5       0.7330      0.00000
      6       3.9207      0.00000
      7       5.1053      0.00000
      8       6.4012      0.00000
      9       6.7003      0.00000
     10       7.7248      0.00000
     11       8.0060      0.00000
     12       8.2262      0.00000

 k-point  35 :       0.4415    0.1165    0.0000
  band No.  band energies     occupation 
      1     -12.2432      1.00000
      2      -8.4116      1.00000
      3      -5.5110      1.00000
      4      -2.7728      1.00000
      5       0.6443      0.00000
      6       3.9950      0.00000
      7       4.9330      0.00000
      8       6.4616      0.00000
      9       6.5743      0.00000
     10       7.7207      0.00000
     11       7.9631      0.00000
     12       8.2002      0.00000

 k-point  36 :       0.4499    0.0999    0.0000
  band No.  band energies     occupation 
      1     -12.2671      1.00000
      2      -8.4428      1.00000
      3      -5.3578      1.00000
      4      -2.8000      1.00000
      5       0.5621      0.00000
      6       4.0516      0.00000
      7       4.7729      0.00000
      8       6.4693      0.00000
      9       6.5187      0.00000
     10       7.7656      0.00000
     11       7.8844      0.00000
     12       8.2529      0.00000

 k-point  37 :       0.4583    0.0832    0.0000
  band No.  band energies     occupation 
      1     -12.2878      1.00000
      2      -8.4693      1.00000
      3      -5.2195      1.00000
      4      -2.8233      1.00000
      5       0.4878      0.00000
      6       4.0935      0.00000
      7       4.6295      0.00000
      8       6.3837      0.00000
      9       6.5668      0.00000
     10       7.7319      0.00000
     11       7.8409      0.00000
     12       8.2307      0.00000

 k-point  38 :       0.4666    0.0666    0.0000
  band No.  band energies     occupation 
      1     -12.3050      1.00000
      2      -8.4910      1.00000
      3      -5.1000      1.00000
      4      -2.8428      1.00000
      5       0.4231      0.00000
      6       4.1233      0.00000
      7       4.5068      0.00000
      8       6.3159      0.00000
      9       6.6030      0.00000
     10       7.7304      0.00000
     11       7.7938      0.00000
     12       8.1817      0.00000

 k-point  39 :       0.4749    0.0499    0.0000
  band No.  band energies     occupation 
      1     -12.3186      1.00000
      2      -8.5079      1.00000
      3      -5.0025      1.00000
      4      -2.8581      1.00000
      5       0.3700      0.00000
      6       4.1437      0.00000
      7       4.4080      0.00000
      8       6.2645      0.00000
      9       6.6280      0.00000
     10       7.7268      0.00000
     11       7.7645      0.00000
     12       8.1910      0.00000

 k-point  40 :       0.4833    0.0333    0.0000
  band No.  band energies     occupation 
      1     -12.3284      1.00000
      2      -8.5200      1.00000
      3      -4.9301      1.00000
      4      -2.8691      1.00000
      5       0.3302      0.00000
      6       4.1568      0.00000
      7       4.3357      0.00000
      8       6.2284      0.00000
      9       6.6436      0.00000
     10       7.7322      0.00000
     11       7.7966      0.00000
     12       8.1429      0.00000

 k-point  41 :       0.4917    0.0166    0.0000
  band No.  band energies     occupation 
      1     -12.3343      1.00000
      2      -8.5272      1.00000
      3      -4.8857      1.00000
      4      -2.8758      1.00000
      5       0.3056      0.00000
      6       4.1640      0.00000
      7       4.2916      0.00000
      8       6.2070      0.00000
      9       6.6518      0.00000
     10       7.7173      0.00000
     11       7.7259      0.00000
     12       8.1064      0.00000

 k-point  42 :       0.5000    0.0000    0.0000
  band No.  band energies     occupation 
      1     -12.3363      1.00000
      2      -8.5296      1.00000
      3      -4.8705      1.00000
      4      -2.8780      1.00000
      5       0.2973      0.00000
      6       4.1663      0.00000
      7       4.2768      0.00000
      8       6.2000      0.00000
      9       6.6544      0.00000
     10       7.7148      0.00000
     11       7.7219      0.00000
     12       8.1040      0.00000

 k-point  43 :       0.5000    0.0000    0.0000
  band No.  band energies     occupation 
      1     -12.3363      1.00000
      2      -8.5296      1.00000
      3      -4.8705      1.00000
      4      -2.8780      1.00000
      5       0.2973      0.00000
      6       4.1663      0.00000
      7       4.2768      0.00000
      8       6.2000      0.00000
      9       6.6544      0.00000
     10       7.7143      0.00000
     11       7.7219      0.00000
     12       8.1027      0.00000

 k-point  44 :       0.4750    0.0000    0.0000
  band No.  band energies     occupation 
      1     -12.3631      1.00000
      2      -8.4862      1.00000
      3      -4.8593      1.00000
      4      -2.9281      1.00000
      5       0.3621      0.00000
      6       3.9476      0.00000
      7       4.4095      0.00000
      8       6.2519      0.00000
      9       6.5298      0.00000
     10       7.3849      0.00000
     11       7.8008      0.00000
     12       8.4344      0.00000

 k-point  45 :       0.4500    0.0000    0.0000
  band No.  band energies     occupation 
      1     -12.4397      1.00000
      2      -8.3597      1.00000
      3      -4.8251      1.00000
      4      -3.0665      1.00000
      5       0.5435      0.00000
      6       3.6288      0.00000
      7       4.4908      0.00000
      8       6.2509      0.00000
      9       6.3206      0.00000
     10       7.0501      0.00000
     11       8.5774      0.00000
     12       9.2311      0.00000

 k-point  46 :       0.4250    0.0000    0.0000
  band No.  band energies     occupation 
      1     -12.5567      1.00000
      2      -8.1602      1.00000
      3      -4.7683      1.00000
      4      -3.2665      1.00000
      5       0.8107      0.00000
      6       3.2857      0.00000
      7       4.4901      0.00000
      8       5.9316      0.00000
      9       6.1541      0.00000
     10       6.9859      0.00000
     11       7.8975      0.00000
     12       8.5554      0.00000

 k-point  47 :       0.4000    0.0000    0.0000
  band No.  band energies     occupation 
      1     -12.7023      1.00000
      2      -7.8999      1.00000
      3      -4.6892      1.00000
      4      -3.5017      1.00000
      5       1.1272      0.00000
      6       2.9462      0.00000
      7       4.4237      0.00000
      8       5.6082      0.00000
      9       5.8246      0.00000
     10       7.0039      0.00000
     11       7.9122      0.00000
     12       8.3554      0.00000

 k-point  48 :       0.3750    0.0000    0.0000
  band No.  band energies     occupation 
      1     -12.8655      1.00000
      2      -7.5912      1.00000
      3      -4.5884      1.00000
      4      -3.7522      1.00000
      5       1.4462      0.00000
      6       2.6420      0.00000
      7       4.3081      0.00000
      8       5.2731      0.00000
      9       5.5179      0.00000
     10       6.8814      0.00000
     11       7.7609      0.00000
     12       8.4334      0.00000

 k-point  49 :       0.3500    0.0000    0.0000
  band No.  band energies     occupation 
      1     -13.0374      1.00000
      2      -7.2448      1.00000
      3      -4.4661      1.00000
      4      -4.0040      1.00000
      5       1.6651      0.00000
      6       2.4540      0.00000
      7       4.1674      0.00000
      8       4.9208      0.00000
      9       5.2831      0.00000
     10       6.6552      0.00000
     11       7.4998      0.00000
     12       8.5800      0.00000

 k-point  50 :       0.3250    0.0000    0.0000
  band No.  band energies     occupation 
      1     -13.2113      1.00000
      2      -6.8706      1.00000
      3      -4.3231      1.00000
      4      -4.2466      1.00000
      5       1.6184      0.00000
      6       2.5121      0.00000
      7       4.0436      0.00000
      8       4.5730      0.00000
      9       5.1012      0.00000
     10       6.3878      0.00000
     11       7.2390      0.00000
     12       8.6252      0.00000

 k-point  51 :       0.3000    0.0000    0.0000
  band No.  band energies     occupation 
      1     -13.3821      1.00000
      2      -6.4796      1.00000
      3      -4.4703      1.00000
      4      -4.1603      1.00000
      5       1.3991      0.00000
      6       2.6611      0.00000
      7       3.9983      0.00000
      8       4.2487      0.00000
      9       4.9497      0.00000
     10       6.1111      0.00000
     11       7.0015      0.00000
     12       8.5513      0.00000

 k-point  52 :       0.2750    0.0000    0.0000
  band No.  band energies     occupation 
      1     -13.5462      1.00000
      2      -6.0892      1.00000
      3      -4.6595      1.00000
      4      -3.9792      1.00000
      5       1.1459      0.00000
      6       2.7043      0.00000
      7       3.9079      0.00000
      8       4.1314      0.00000
      9       4.8147      0.00000
     10       5.8417      0.00000
     11       6.8175      0.00000
     12       9.6657      0.00000

 k-point  53 :       0.2500    0.0000    0.0000
  band No.  band energies     occupation 
      1     -13.7010      1.00000
      2      -5.7434      1.00000
      3      -4.7729      1.00000
      4      -3.7809      1.00000
      5       0.8977      0.00000
      6       2.6272      0.00000
      7       3.6345      0.00000
      8       4.3205      0.00000
      9       4.6881      0.00000
     10       5.5847      0.00000
     11       6.6615      0.00000
     12       7.2677      0.00000

 k-point  54 :       0.2250    0.0000    0.0000
  band No.  band energies     occupation 
      1     -13.8445      1.00000
      2      -5.5542      1.00000
      3      -4.7021      1.00000
      4      -3.5678      1.00000
      5       0.6657      0.00000
      6       2.4897      0.00000
      7       3.3775      0.00000
      8       4.5186      0.00000
      9       4.5656      0.00000
     10       5.3480      0.00000
     11       6.5985      0.00000
     12       6.7309      0.00000

 k-point  55 :       0.2000    0.0000    0.0000
  band No.  band energies     occupation 
      1     -13.9754      1.00000
      2      -5.5686      1.00000
      3      -4.4042      1.00000
      4      -3.3428      1.00000
      5       0.4541      0.00000
      6       2.3346      0.00000
      7       3.1457      0.00000
      8       4.4450      0.00000
      9       4.6441      0.00000
     10       5.1334      0.00000
     11       6.2003      0.00000
     12       6.6101      0.00000

 k-point  56 :       0.1750    0.0000    0.0000
  band No.  band energies     occupation 
      1     -14.0926      1.00000
      2      -5.6658      1.00000
      3      -4.0061      1.00000
      4      -3.1098      1.00000
      5       0.2650      0.00000
      6       2.1820      0.00000
      7       2.9404      0.00000
      8       4.3241      0.00000
      9       4.6709      0.00000
     10       4.9422      0.00000
     11       5.6848      0.00000
     12       9.0446      0.00000

 k-point  57 :       0.1500    0.0000    0.0000
  band No.  band energies     occupation 
      1     -14.1954      1.00000
      2      -5.7763      1.00000
      3      -3.5842      1.00000
      4      -2.8738      1.00000
      5       0.0994      0.00000
      6       2.0420      0.00000
      7       2.7620      0.00000
      8       4.2004      0.00000
      9       4.6186      0.00000
     10       4.7751      0.00000
     11       5.1937      0.00000
     12       8.8055      0.00000

 k-point  58 :       0.1250    0.0000    0.0000
  band No.  band energies     occupation 
      1     -14.2832      1.00000
      2      -5.8793      1.00000
      3      -3.1695      1.00000
      4      -2.6419      1.00000
[...]
      7       4.2902      0.00000
      8       6.1847      0.00000
      9       6.6190      0.00000
     10       7.4908      0.00000
     11       7.5733      0.00000
     12       7.8948      0.00000

 k-point  42 :       0.5000    0.0000    0.0000
  band No.  band energies     occupation 
      1     -12.3361      1.00000
      2      -8.5296      1.00000
      3      -4.8704      1.00000
      4      -2.8779      1.00000
      5       0.2967      0.00000
      6       4.1636      0.00000
      7       4.2754      0.00000
      8       6.1777      0.00000
      9       6.6211      0.00000
     10       7.4867      0.00000
     11       7.5674      0.00000
     12       7.8996      0.00000

 k-point  43 :       0.5000    0.0000    0.0000
  band No.  band energies     occupation 
      1     -12.3361      1.00000
      2      -8.5296      1.00000
      3      -4.8704      1.00000
      4      -2.8779      1.00000
      5       0.2967      0.00000
      6       4.1636      0.00000
      7       4.2754      0.00000
      8       6.1777      0.00000
      9       6.6211      0.00000
     10       7.4867      0.00000
     11       7.5674      0.00000
     12       7.8919      0.00000

 k-point  44 :       0.4750    0.0000    0.0000
  band No.  band energies     occupation 
      1     -12.3629      1.00000
      2      -8.4862      1.00000
      3      -4.8592      1.00000
      4      -2.9280      1.00000
      5       0.3615      0.00000
      6       3.9445      0.00000
      7       4.4080      0.00000
      8       6.2200      0.00000
      9       6.4839      0.00000
     10       7.1451      0.00000
     11       7.7072      0.00000
     12       8.2191      0.00000

 k-point  45 :       0.4500    0.0000    0.0000
  band No.  band energies     occupation 
      1     -12.4395      1.00000
      2      -8.3597      1.00000
      3      -4.8250      1.00000
      4      -3.0664      1.00000
      5       0.5429      0.00000
      6       3.6248      0.00000
      7       4.4887      0.00000
      8       6.1681      0.00000
      9       6.2428      0.00000
     10       6.8663      0.00000
     11       7.7826      0.00000
     12       8.9384      0.00000

 k-point  46 :       0.4250    0.0000    0.0000
  band No.  band energies     occupation 
      1     -12.5565      1.00000
      2      -8.1602      1.00000
      3      -4.7682      1.00000
      4      -3.2664      1.00000
      5       0.8101      0.00000
      6       3.2809      0.00000
      7       4.4860      0.00000
      8       5.8210      0.00000
      9       5.9934      0.00000
     10       6.8833      0.00000
     11       7.8141      0.00000
     12       8.4430      0.00000

 k-point  47 :       0.4000    0.0000    0.0000
  band No.  band energies     occupation 
      1     -12.7021      1.00000
      2      -7.8999      1.00000
      3      -4.6891      1.00000
      4      -3.5017      1.00000
      5       1.1266      0.00000
      6       2.9408      0.00000
      7       4.4155      0.00000
      8       5.4443      0.00000
      9       5.6790      0.00000
     10       6.8978      0.00000
     11       7.8112      0.00000
     12       8.2482      0.00000

 k-point  48 :       0.3750    0.0000    0.0000
  band No.  band energies     occupation 
      1     -12.8653      1.00000
      2      -7.5912      1.00000
      3      -4.5883      1.00000
      4      -3.7523      1.00000
      5       1.4452      0.00000
      6       2.6361      0.00000
      7       4.2928      0.00000
      8       5.0579      0.00000
      9       5.4116      0.00000
     10       6.7526      0.00000
     11       7.6251      0.00000
     12       8.7853      0.00000

 k-point  49 :       0.3500    0.0000    0.0000
  band No.  band energies     occupation 
      1     -13.0373      1.00000
      2      -7.2448      1.00000
      3      -4.4660      1.00000
      4      -4.0040      1.00000
      5       1.6628      0.00000
      6       2.4482      0.00000
      7       4.1429      0.00000
      8       4.6801      0.00000
      9       5.1993      0.00000
     10       6.5114      0.00000
     11       7.3727      0.00000
     12       8.5128      0.00000

 k-point  50 :       0.3250    0.0000    0.0000
  band No.  band energies     occupation 
      1     -13.2111      1.00000
      2      -6.8705      1.00000
      3      -4.3230      1.00000
      4      -4.2467      1.00000
      5       1.6136      0.00000
      6       2.5060      0.00000
      7       4.0093      0.00000
      8       4.3227      0.00000
      9       5.0279      0.00000
     10       6.2350      0.00000
     11       7.1037      0.00000
     12       8.6394      0.00000

 k-point  51 :       0.3000    0.0000    0.0000
  band No.  band energies     occupation 
      1     -13.3819      1.00000
      2      -6.4795      1.00000
      3      -4.4704      1.00000
      4      -4.1602      1.00000
      5       1.3931      0.00000
      6       2.6498      0.00000
      7       3.9245      0.00000
      8       4.0278      0.00000
      9       4.8818      0.00000
     10       5.9535      0.00000
     11       6.8755      0.00000
     12       8.3216      0.00000

 k-point  52 :       0.2750    0.0000    0.0000
  band No.  band energies     occupation 
      1     -13.5460      1.00000
      2      -6.0892      1.00000
      3      -4.6596      1.00000
      4      -3.9791      1.00000
      5       1.1393      0.00000
      6       2.6825      0.00000
      7       3.6565      0.00000
      8       4.0841      0.00000
      9       4.7500      0.00000
     10       5.6803      0.00000
     11       6.6811      0.00000
     12       7.8018      0.00000

 k-point  53 :       0.2500    0.0000    0.0000
  band No.  band energies     occupation 
      1     -13.7008      1.00000
      2      -5.7434      1.00000
      3      -4.7730      1.00000
      4      -3.7808      1.00000
      5       0.8906      0.00000
      6       2.5952      0.00000
      7       3.3729      0.00000
      8       4.2755      0.00000
      9       4.6283      0.00000
     10       5.4221      0.00000
     11       6.5594      0.00000
     12       8.2023      0.00000

 k-point  54 :       0.2250    0.0000    0.0000
  band No.  band energies     occupation 
      1     -13.8444      1.00000
      2      -5.5543      1.00000
      3      -4.7021      1.00000
      4      -3.5677      1.00000
      5       0.6583      0.00000
      6       2.4503      0.00000
      7       3.1135      0.00000
      8       4.4301      0.00000
      9       4.5433      0.00000
     10       5.1842      0.00000
     11       6.5499      0.00000
     12       6.7781      0.00000

 k-point  55 :       0.2000    0.0000    0.0000
  band No.  band energies     occupation 
      1     -13.9753      1.00000
      2      -5.5688      1.00000
      3      -4.4041      1.00000
      4      -3.3427      1.00000
      5       0.4465      0.00000
      6       2.2898      0.00000
      7       2.8802      0.00000
      8       4.3645      0.00000
      9       4.6020      0.00000
     10       4.9690      0.00000
     11       6.2002      0.00000
     12       6.5196      0.00000

 k-point  56 :       0.1750    0.0000    0.0000
  band No.  band energies     occupation 
      1     -14.0925      1.00000
      2      -5.6660      1.00000
      3      -4.0060      1.00000
      4      -3.1097      1.00000
      5       0.2572      0.00000
      6       2.1334      0.00000
      7       2.6740      0.00000
      8       4.2529      0.00000
      9       4.6063      0.00000
     10       4.7787      0.00000
     11       5.6839      0.00000
     12       6.6201      0.00000

 k-point  57 :       0.1500    0.0000    0.0000
  band No.  band energies     occupation 
      1     -14.1953      1.00000
      2      -5.7765      1.00000
      3      -3.5841      1.00000
      4      -2.8736      1.00000
      5       0.0915      0.00000
      6       1.9905      0.00000
      7       2.4949      0.00000
      8       4.1390      0.00000
      9       4.5321      0.00000
     10       4.6143      0.00000
     11       5.1936      0.00000
     12       6.7457      0.00000

 k-point  58 :       0.1250    0.0000    0.0000
  band No.  band energies     occupation 
      1     -14.2830      1.00000
      2      -5.8796      1.00000
      3      -3.1694      1.00000
      4      -2.6418      1.00000
      5      -0.0501      0.00000
      6       1.8659      0.00000
      7       2.3431      0.00000
      8       4.0224      0.00000
      9       4.4172      0.00000
     10       4.4710      0.00000
     11       4.7406      0.00000
     12       6.8768      0.00000

 k-point  59 :       0.1000    0.0000    0.0000
  band No.  band energies     occupation 
      1     -14.3553      1.00000
      2      -5.9678      1.00000
      3      -2.7824      1.00000
      4      -2.4230      1.00000
      5      -0.1671      0.00000
      6       1.7624      0.00000
      7       2.2188      0.00000
      8       3.8996      0.00000
      9       4.3008      0.00000
     10       4.3470      0.00000
     11       6.8627      0.00000
     12       8.4546      0.00000

 k-point  60 :       0.0750    0.0000    0.0000
  band No.  band energies     occupation 
      1     -14.4118      1.00000
      2      -6.0382      1.00000
      3      -2.4435      1.00000
      4      -2.2294      1.00000
      5      -0.2593      0.00000
      6       1.6814      0.00000
      7       2.1220      0.00000
      8       3.7682      0.00000
      9       3.9987      0.00000
     10       4.1942      0.00000
     11       4.2509      0.00000
     12       7.2860      0.00000

 k-point  61 :       0.0500    0.0000    0.0000
  band No.  band energies     occupation 
      1     -14.4523      1.00000
      2      -6.0892      1.00000
      3      -2.1747      1.00000
      4      -2.0747      1.00000
      5      -0.3264      0.00000
      6       1.6238      0.00000
      7       2.0527      0.00000
      8       3.6442      0.00000
      9       3.7396      0.00000
     10       4.1192      0.00000
     11       4.1835      0.00000
     12       7.0588      0.00000

 k-point  62 :       0.0250    0.0000    0.0000
  band No.  band energies     occupation 
      1     -14.4767      1.00000
      2      -6.1200      1.00000
      3      -1.9998      1.00000
      4      -1.9741      1.00000
      5      -0.3674      0.00000
      6       1.5894      0.00000
      7       2.0111      0.00000
      8       3.5532      0.00000
      9       3.5759      0.00000
     10       4.0756      0.00000
     11       4.1433      0.00000
     12       7.0359      0.00000

 k-point  63 :       0.0000    0.0000    0.0000
  band No.  band energies     occupation 
      1     -14.4848      1.00000
      2      -6.1303      1.00000
      3      -1.9392      1.00000
      4      -1.9389      1.00000
      5      -0.3813      0.00000
      6       1.5781      0.00000
      7       1.9973      0.00000
      8       3.5195      0.00000
      9       3.5198      0.00000
     10       4.0614      0.00000
     11       4.1299      0.00000
     12       7.1174      0.00000


--------------------------------------------------------------------------------------------------------


 soft charge-density along one line, spin component           1
         0         1         2         3         4         5         6         7         8         9
 total charge-density along one line
 
 soft charge-density along one line, spin component           2
         0         1         2         3         4         5         6         7         8         9
 total charge-density along one line
 
 pseudopotential strength for first ion, spin component:           1
  5.124 -12.998   0.000   0.000  -0.000  -0.000   0.001   0.000
-12.998  33.840  -0.000  -0.001   0.000   0.000   0.001  -0.000
  0.000  -0.000  -0.335  -0.000  -0.000   0.702   0.000   0.000
  0.000  -0.001  -0.000  -0.339   0.000   0.000   0.713  -0.000
 -0.000   0.000  -0.000   0.000  -0.335   0.000  -0.000   0.702
 -0.000   0.000   0.702   0.000   0.000   0.307  -0.000   0.000
  0.001   0.001   0.000   0.713  -0.000  -0.000   0.279   0.000
  0.000  -0.000   0.000  -0.000   0.702   0.000   0.000   0.307
 pseudopotential strength for first ion, spin component:           2
  5.124 -12.998   0.000   0.000  -0.000  -0.000   0.001   0.000
-12.998  33.840  -0.000  -0.001   0.000   0.000   0.001  -0.000
  0.000  -0.000  -0.335  -0.000  -0.000   0.702   0.000   0.000
  0.000  -0.001  -0.000  -0.339   0.000   0.000   0.713  -0.000
 -0.000   0.000  -0.000   0.000  -0.335   0.000  -0.000   0.702
 -0.000   0.000   0.702   0.000   0.000   0.307  -0.000   0.000
  0.001   0.001   0.000   0.713  -0.000  -0.000   0.279   0.000
  0.000  -0.000   0.000  -0.000   0.702   0.000   0.000   0.307
 total augmentation occupancy for first ion, spin component:           1
  1.990   0.000   0.000   0.000   0.000   0.000   0.000   0.000
  0.000   0.000   0.000   0.000   0.000   0.000   0.000   0.000
  0.000   0.000   0.003   0.000   0.000   0.000   0.000   0.000
  0.000   0.000   0.000   0.003   0.000   0.000   0.000   0.000
  0.000   0.000   0.000   0.000   0.003   0.000   0.000   0.000
  0.000   0.000   0.000   0.000   0.000   0.000   0.000   0.000
  0.000   0.000   0.000   0.000   0.000   0.000   0.000   0.000
  0.000   0.000   0.000   0.000   0.000   0.000   0.000   0.000
 total augmentation occupancy for first ion, spin component:           2
  0.995   0.000   0.000   0.000   0.000   0.000   0.000   0.000
  0.000   0.000   0.000   0.000   0.000   0.000   0.000   0.000
  0.000   0.000   0.002   0.000   0.000   0.000   0.000   0.000
  0.000   0.000   0.000   0.002   0.000   0.000   0.000   0.000
  0.000   0.000   0.000   0.000   0.002   0.000   0.000   0.000
  0.000   0.000   0.000   0.000   0.000   0.000   0.000   0.000
  0.000   0.000   0.000   0.000   0.000   0.000   0.000   0.000
  0.000   0.000   0.000   0.000   0.000   0.000   0.000   0.000


------------------------ aborting loop because EDIFF is reached ----------------------------------------


    CHARGE:  cpu time    0.10: real time    0.10
    FORLOC:  cpu time    0.00: real time    0.00
    FORNL :  cpu time    0.17: real time    0.17
    STRESS:  cpu time    0.61: real time    0.61
    FORCOR:  cpu time    0.08: real time    0.08
    FORHAR:  cpu time    0.01: real time    0.01

  Grimme's potential added to compensate for missing vdW interactions
  -------------------------------------------------------------------

  Parameters for Grimme's potential:
         C6(Jnm^6/mol)     R0(A)
   -----------------------------
   Be       1.610          1.408
   C        1.750          1.452

  VDW_RADIUS =    30.000 A
  VDW_S6 =     0.750 A
  VDW_D =    20.000 A

  Number of pair interactions contributing to vdW energy:    5511
  Estimated vdW energy (eV):  -0.22468
    FORVDW:  cpu time    0.00: real time    0.00

  FORCE on cell =-STRESS in cart. coord.  units (eV):
  Direction    XX          YY          ZZ          XY          YZ          ZX
  --------------------------------------------------------------------------------------
  Alpha Z     2.61803     2.61803     2.61803
  Ewald     688.09074   688.09225  -867.36451    -0.00132     0.00087    -0.00050
  Hartree   682.23027   682.19192  -665.90427     0.03321     0.21245    -0.12266
  E(xc)     -25.29357   -25.31555   -25.84816     0.01904     0.01744    -0.01007
  Local   -1440.10264 -1441.95066  1461.96894     1.60044    -0.20798     0.12008
  n-local     4.12821     6.53179     3.37600    -0.35242    -0.17967     0.78867
  augment    -0.78173    -0.77255    -0.88940    -0.00794    -0.00488     0.00294
  Kinetic    89.83645    90.53499    93.80804     0.63514     0.08021     0.32637
  Fock        0.00000     0.00000     0.00000     0.00000     0.00000     0.00000
  -------------------------------------------------------------------------------------
  Total       1.69991     0.33310     1.75147     1.18369    -0.53901     0.31120
  in kB      23.45158     4.59541    24.16291    16.32992    -7.43606     4.29321
  external pressure =       17.40 kB  Pullay stress =        0.00 kB


 VOLUME and BASIS-vectors are now :
 -----------------------------------------------------------------------------
  energy-cutoff  :      420.00
  volume of cell :      116.14
      direct lattice vectors                 reciprocal lattice vectors
     2.589415957 -1.495000000  0.000000000     0.386187471  0.000000000  0.000000000
     0.000000000  2.990000000  0.000000000     0.193093736  0.334448161  0.000000000
     0.000000000  0.000000000 15.000000000     0.000000000  0.000000000  0.066666667

  length of vectors
     2.990000000  2.990000000 15.000000000     0.386187471  0.386187471  0.066666667


 FORCES acting on ions
    electron-ion (+dipol)            ewald-force                    non-local-force                 convergence-correction
 -----------------------------------------------------------------------------------------------
   0.756E-01 -.126E+00 0.708E+02   -.913E-03 -.222E-02 -.671E+02   -.338E+00 0.585E+00 -.378E+01   -.213E-02 0.365E-02 -.156E+00
   -.718E-01 0.129E+00 -.708E+02   -.199E-02 -.344E-03 0.671E+02   0.337E+00 -.585E+00 0.378E+01   0.210E-02 -.367E-02 0.156E+00
   -.401E-02 -.230E-02 -.903E-06   0.290E-02 0.256E-02 -.581E-04   0.931E-03 0.538E-03 0.000E+00   0.250E-03 0.915E-04 0.137E-02
 -----------------------------------------------------------------------------------------------
   -.236E-03 0.840E-03 -.157E-03   -.147E-14 -.152E-14 -.711E-14   -.243E-03 -.140E-03 0.000E+00   0.212E-03 0.722E-04 0.220E-02
 
 
 POSITION                                       TOTAL-FORCE (eV/Angst)
 -----------------------------------------------------------------------------------
      0.74573      1.46907     12.32375        -0.265784      0.459901     -0.272713
      1.60889     -0.02596     13.25015         0.265394     -0.460126      0.272713
      2.47198      1.46902     12.78695         0.000390      0.000225      0.000000
 -----------------------------------------------------------------------------------
    total drift:                               -0.000268      0.000772      0.002046


--------------------------------------------------------------------------------------------------------



  FREE ENERGIE OF THE ION-ELECTRON SYSTEM (eV)
  ---------------------------------------------------
  free  energy   TOTEN  =       -15.53161301 eV

  energy  without entropy=      -15.53161301  energy(sigma->0) =      -15.53161301
 


--------------------------------------------------------------------------------------------------------


    POTLOK:  cpu time    0.10: real time    0.10


--------------------------------------------------------------------------------------------------------


     LOOP+:  cpu time   25.19: real time   25.45
    4ORBIT:  cpu time    0.00: real time    0.00

 total amount of memory used by VASP on root node    42033. kBytes
========================================================================

   base      :      30000. kBytes
   nonl-proj :       4672. kBytes
   fftplans  :       1085. kBytes
   grid      :       2738. kBytes
   one-center:          6. kBytes
   wavefun   :       3532. kBytes
 
  
  
 General timing and accounting informations for this job:
 ========================================================
  
                  Total CPU time used (sec):       27.106
                            User time (sec):       26.886
                          System time (sec):        0.220
                         Elapsed time (sec):       27.922
  
                   Maximum memory used (kb):       42252.
                   Average memory used (kb):           0.
  
                          Minor page faults:         8727
                          Major page faults:           10
                 Voluntary context switches:         3594
