   20   20    1    2
  0.2378236E+02  0.1231462E-08  0.1231462E-08  0.1231462E-08  0.3000000E-15
  1.000000000000000E-004
  CAR
 TQM
    260    180    168

  0.0000000E+00  0.0000000E+00  0.0000000E+00  0.5555556E-02
    1      -13.077151    -13.077146   1.000000   1.000000
    2      -13.070502    -13.070498   1.000000   1.000000
    3      -13.068585    -13.068580   1.000000   1.000000
    4      -13.040458    -13.040453   1.000000   1.000000
    5      -13.039554    -13.039549   1.000000   1.000000
    6      -13.035286    -13.035281   1.000000   1.000000
    7      -13.026395    -13.026390   1.000000   1.000000
    8      -13.026395    -13.026389   1.000000   1.000000
    9      -13.013855    -13.013850   1.000000   1.000000
   10      -13.005081    -13.005076   1.000000   1.000000
   11      -13.003523    -13.003518   1.000000   1.000000
   12      -13.002066    -13.002061   1.000000   1.000000
   13      -13.002065    -13.002060   1.000000   1.000000
   14      -12.999291    -12.999286   1.000000   1.000000
   15      -12.996180    -12.996175   1.000000   1.000000
   16      -12.979419    -12.979414   1.000000   1.000000
   17      -12.979419    -12.979414   1.000000   1.000000
   18      -12.978888    -12.978883   1.000000   1.000000
   19      -12.978888    -12.978883   1.000000   1.000000
   20      -12.955612    -12.955607   1.000000   1.000000
   21      -12.954862    -12.954857   1.000000   1.000000
   22      -12.952997    -12.952993   1.000000   1.000000
   23      -12.951837    -12.951832   1.000000   1.000000
   24      -12.948328    -12.948323   1.000000   1.000000
   25      -12.948327    -12.948322   1.000000   1.000000
   26      -12.945893    -12.945888   1.000000   1.000000
   27      -12.944117    -12.944112   1.000000   1.000000
   28      -12.935534    -12.935529   1.000000   1.000000
   29      -12.935533    -12.935528   1.000000   1.000000
   30      -12.933407    -12.933402   1.000000   1.000000
   31      -12.931897    -12.931892   1.000000   1.000000
   32      -12.931259    -12.931254   1.000000   1.000000
   33      -12.925634    -12.925628   1.000000   1.000000
   34      -12.922580    -12.922575   1.000000   1.000000
   35      -12.922580    -12.922575   1.000000   1.000000
   36      -12.921817    -12.921812   1.000000   1.000000
   37      -12.915078    -12.915073   1.000000   1.000000
   38      -12.915078    -12.915072   1.000000   1.000000
   39      -12.908793    -12.908788   1.000000   1.000000
   40      -12.908793    -12.908787   1.000000   1.000000
   41      -12.902824    -12.902819   1.000000   1.000000
   42      -12.889932    -12.889927   1.000000   1.000000
   43      -12.884777    -12.884771   1.000000   1.000000
   44      -12.884513    -12.884508   1.000000   1.000000
   45      -12.884512    -12.884507   1.000000   1.000000
   46      -12.884228    -12.884223   1.000000   1.000000
   47      -12.879192    -12.879187   1.000000   1.000000
   48      -12.870253    -12.870248   1.000000   1.000000
   49      -12.870252    -12.870247   1.000000   1.000000
   50      -12.864406    -12.864400   1.000000   1.000000
   51      -12.860447    -12.860442   1.000000   1.000000
   52      -12.860446    -12.860441   1.000000   1.000000
   53      -12.859035    -12.859030   1.000000   1.000000
   54      -12.854641    -12.854636   1.000000   1.000000
   55      -12.851244    -12.851239   1.000000   1.000000
   56      -12.851244    -12.851239   1.000000   1.000000
   57      -12.849127    -12.849121   1.000000   1.000000
   58      -12.849126    -12.849121   1.000000   1.000000
   59      -12.839688    -12.839683   1.000000   1.000000
   60      -12.839688    -12.839683   1.000000   1.000000
   61      -12.838901    -12.838896   1.000000   1.000000
   62      -12.838901    -12.838896   1.000000   1.000000
   63      -12.830541    -12.830536   1.000000   1.000000
   64      -12.823561    -12.823555   1.000000   1.000000
   65      -12.822981    -12.822976   1.000000   1.000000
   66      -12.821232    -12.821227   1.000000   1.000000
   67      -12.821231    -12.821226   1.000000   1.000000
   68      -12.819145    -12.819140   1.000000   1.000000
   69      -12.819144    -12.819139   1.000000   1.000000
   70      -12.818315    -12.818310   1.000000   1.000000
   71      -12.816439    -12.816434   1.000000   1.000000
   72      -12.813142    -12.813137   1.000000   1.000000
   73      -12.807257    -12.807252   1.000000   1.000000
   74      -12.790809    -12.790804   1.000000   1.000000
   75      -12.783956    -12.783951   1.000000   1.000000
   76      -12.778453    -12.778448   1.000000   1.000000
   77      -12.778453    -12.778447   1.000000   1.000000
   78      -12.763577    -12.763571   1.000000   1.000000
   79      -12.763576    -12.763571   1.000000   1.000000
   80      -12.758408    -12.758403   1.000000   1.000000
   81       -2.818013     -2.818010   1.000000   1.000000
   82       -1.991784     -1.991776   1.000000   1.000000
   83       -1.094003     -1.094006   1.000000   1.000000
   84        0.703842      0.703844   1.000000   1.000000
   85        0.703844      0.703846   1.000000   1.000000
   86        0.741054      0.741055   1.000000   1.000000
   87        0.741056      0.741057   1.000000   1.000000
   88        1.147062      1.147070   1.000000   1.000000
   89        1.294474      1.294483   1.000000   1.000000
   90        1.355768      1.355769   1.000000   1.000000
   91        1.712925      1.712924   1.000000   1.000000
   92        2.222964      2.222964   1.000000   1.000000
   93        2.371203      2.371204   1.000000   1.000000
   94        2.371203      2.371205   1.000000   1.000000
   95        2.415442      2.415443   1.000000   1.000000
   96        2.415443      2.415444   1.000000   1.000000
   97        3.013058      3.013058   1.000000   1.000000
   98        3.023619      3.023618   1.000000   1.000000
   99        3.093124      3.093124   1.000000   1.000000
  100        4.389627      4.389626   1.000000   1.000000
  101        4.399892      4.399892   1.000000   1.000000
  102        4.802661      4.802655   1.000000   1.000000
  103        4.802661      4.802655   1.000000   1.000000
  104        5.001367      5.001368   1.000000   1.000000
  105        5.177416      5.177409   1.000000   1.000000
  106        5.177417      5.177409   1.000000   1.000000
  107        5.614970      5.614972   1.000000   1.000000
  108        5.614970      5.614973   1.000000   1.000000
  109        5.681540      5.681536   1.000000   1.000000
  110        5.805362      5.805358   1.000000   1.000000
  111        5.824490      5.824485   1.000000   1.000000
  112        5.835231      5.835227   1.000000   1.000000
  113        5.963562      5.963556   1.000000   1.000000
  114        5.976999      5.976992   1.000000   1.000000
  115        6.003668      6.003661   1.000000   1.000000
  116        6.425756      6.425750   1.000000   1.000000
  117        6.427040      6.427035   1.000000   1.000000
  118        6.468344      6.468351   1.000000   1.000000
  119        6.468344      6.468351   1.000000   1.000000
  120        6.595073      6.595067   1.000000   1.000000
  121        6.595074      6.595068   1.000000   1.000000
  122        6.635821      6.635814   1.000000   1.000000
  123        6.635822      6.635816   1.000000   1.000000
  124        6.843753      6.843748   1.000000   1.000000
  125        6.910752      6.910751   1.000000   1.000000
  126        7.197680      7.197675   1.000000   1.000000
  127        7.232718      7.232714   1.000000   1.000000
  128        7.272717      7.272709   1.000000   1.000000
  129        8.210664      8.210668   1.000000   1.000000
  130        8.329264      8.329274   0.990039   0.990033
  131        8.788898      8.788900   0.000000   0.000000
  132        8.850340      8.850334   0.000000   0.000000
  133        8.850341      8.850335   0.000000   0.000000
  134        9.006165      9.006156   0.000000   0.000000
  135        9.653955      9.653951   0.000000   0.000000
  136        9.761932      9.761929   0.000000   0.000000
  137        9.761934      9.761930   0.000000   0.000000
  138       10.166598     10.166593   0.000000   0.000000
  139       10.166598     10.166594   0.000000   0.000000
  140       10.468398     10.468409   0.000000   0.000000
  141       10.558554     10.558549   0.000000   0.000000
  142       10.657123     10.657131   0.000000   0.000000
  143       10.843342     10.843352   0.000000   0.000000
  144       11.065323     11.065319   0.000000   0.000000
  145       11.370126     11.370124   0.000000   0.000000
  146       11.370127     11.370125   0.000000   0.000000
  147       11.866327     11.866325   0.000000   0.000000
  148       11.994135     11.994139   0.000000   0.000000
  149       11.994136     11.994140   0.000000   0.000000
  150       13.126613     13.126607   0.000000   0.000000
  151       13.506489     13.506493   0.000000   0.000000
  152       13.506489     13.506493   0.000000   0.000000
  153       13.778114     13.778115   0.000000   0.000000
  154       14.054818     14.054818   0.000000   0.000000
  155       14.207116     14.207121   0.000000   0.000000
  156       14.207116     14.207121   0.000000   0.000000
  157       14.224067     14.224064   0.000000   0.000000
  158       14.294056     14.294051   0.000000   0.000000
  159       14.503193     14.503192   0.000000   0.000000
  160       14.503194     14.503193   0.000000   0.000000
  161       15.044581     15.044586   0.000000   0.000000
  162       15.044583     15.044588   0.000000   0.000000
  163       15.108030     15.108033   0.000000   0.000000
  164       15.118135     15.118139   0.000000   0.000000
  165       15.118135     15.118139   0.000000   0.000000
  166       15.338476     15.338477   0.000000   0.000000
  167       15.475214     15.475211   0.000000   0.000000
  168       15.600736     15.600084   0.000000   0.000000

  0.0000000E+00  0.0000000E+00  0.2631579E-01  0.5555556E-02
    1      -13.077097    -13.077092   1.000000   1.000000
    2      -13.070420    -13.070415   1.000000   1.000000
    3      -13.068539    -13.068534   1.000000   1.000000
    4      -13.040460    -13.040456   1.000000   1.000000
    5      -13.039576    -13.039571   1.000000   1.000000
    6      -13.035391    -13.035386   1.000000   1.000000
    7      -13.026413    -13.026408   1.000000   1.000000
    8      -13.026382    -13.026376   1.000000   1.000000
    9      -13.014861    -13.014857   1.000000   1.000000
   10      -13.005488    -13.005484   1.000000   1.000000
   11      -13.003642    -13.003637   1.000000   1.000000
   12      -13.002474    -13.002469   1.000000   1.000000
   13      -13.002022    -13.002017   1.000000   1.000000
   14      -12.998819    -12.998814   1.000000   1.000000
   15      -12.996015    -12.996010   1.000000   1.000000
   16      -12.979370    -12.979365   1.000000   1.000000
   17      -12.979264    -12.979260   1.000000   1.000000
   18      -12.979084    -12.979079   1.000000   1.000000
   19      -12.978400    -12.978395   1.000000   1.000000
   20      -12.955760    -12.955755   1.000000   1.000000
   21      -12.955046    -12.955041   1.000000   1.000000
   22      -12.953358    -12.953353   1.000000   1.000000
   23      -12.951658    -12.951653   1.000000   1.000000
   24      -12.948409    -12.948403   1.000000   1.000000
   25      -12.947533    -12.947528   1.000000   1.000000
   26      -12.945477    -12.945472   1.000000   1.000000
   27      -12.944333    -12.944328   1.000000   1.000000
   28      -12.936200    -12.936195   1.000000   1.000000
   29      -12.935660    -12.935655   1.000000   1.000000
   30      -12.934044    -12.934039   1.000000   1.000000
   31      -12.931299    -12.931294   1.000000   1.000000
   32      -12.931036    -12.931031   1.000000   1.000000
   33      -12.925438    -12.925433   1.000000   1.000000
   34      -12.922538    -12.922533   1.000000   1.000000
   35      -12.921863    -12.921857   1.000000   1.000000
   36      -12.921126    -12.921121   1.000000   1.000000
   37      -12.915020    -12.915015   1.000000   1.000000
   38      -12.914959    -12.914954   1.000000   1.000000
   39      -12.909224    -12.909219   1.000000   1.000000
   40      -12.908651    -12.908645   1.000000   1.000000
   41      -12.902313    -12.902308   1.000000   1.000000
   42      -12.889832    -12.889827   1.000000   1.000000
   43      -12.885707    -12.885702   1.000000   1.000000
   44      -12.884675    -12.884670   1.000000   1.000000
   45      -12.884612    -12.884606   1.000000   1.000000
   46      -12.883176    -12.883171   1.000000   1.000000
   47      -12.879106    -12.879101   1.000000   1.000000
   48      -12.870261    -12.870256   1.000000   1.000000
   49      -12.870253    -12.870248   1.000000   1.000000
   50      -12.864565    -12.864560   1.000000   1.000000
   51      -12.860716    -12.860711   1.000000   1.000000
   52      -12.860387    -12.860382   1.000000   1.000000
   53      -12.858882    -12.858877   1.000000   1.000000
   54      -12.855410    -12.855404   1.000000   1.000000
   55      -12.851446    -12.851441   1.000000   1.000000
   56      -12.850831    -12.850826   1.000000   1.000000
   57      -12.849272    -12.849266   1.000000   1.000000
   58      -12.849066    -12.849061   1.000000   1.000000
   59      -12.840684    -12.840679   1.000000   1.000000
   60      -12.840089    -12.840084   1.000000   1.000000
   61      -12.839380    -12.839375   1.000000   1.000000
   62      -12.838726    -12.838720   1.000000   1.000000
   63      -12.830060    -12.830055   1.000000   1.000000
   64      -12.823493    -12.823487   1.000000   1.000000
   65      -12.822371    -12.822366   1.000000   1.000000
   66      -12.821585    -12.821580   1.000000   1.000000
   67      -12.821021    -12.821016   1.000000   1.000000
   68      -12.819475    -12.819470   1.000000   1.000000
   69      -12.819356    -12.819351   1.000000   1.000000
   70      -12.818135    -12.818130   1.000000   1.000000
   71      -12.815795    -12.815790   1.000000   1.000000
   72      -12.813056    -12.813051   1.000000   1.000000
   73      -12.807057    -12.807052   1.000000   1.000000
   74      -12.790708    -12.790703   1.000000   1.000000
   75      -12.783902    -12.783897   1.000000   1.000000
   76      -12.778558    -12.778552   1.000000   1.000000
   77      -12.778492    -12.778487   1.000000   1.000000
   78      -12.763739    -12.763734   1.000000   1.000000
   79      -12.763668    -12.763663   1.000000   1.000000
   80      -12.758297    -12.758292   1.000000   1.000000
   81       -2.812522     -2.812519   1.000000   1.000000
   82       -1.986055     -1.986048   1.000000   1.000000
   83       -1.089534     -1.089537   1.000000   1.000000
   84        0.658540      0.658542   1.000000   1.000000
   85        0.685350      0.685351   1.000000   1.000000
   86        0.698805      0.698807   1.000000   1.000000
   87        0.722215      0.722217   1.000000   1.000000
   88        1.194212      1.194220   1.000000   1.000000
   89        1.341083      1.341091   1.000000   1.000000
   90        1.358718      1.358719   1.000000   1.000000
   91        1.711965      1.711964   1.000000   1.000000
   92        2.220743      2.220743   1.000000   1.000000
   93        2.353985      2.353986   1.000000   1.000000
   94        2.372388      2.372389   1.000000   1.000000
   95        2.404857      2.404858   1.000000   1.000000
   96        2.417403      2.417404   1.000000   1.000000
   97        3.035122      3.035123   1.000000   1.000000
   98        3.044657      3.044657   1.000000   1.000000
   99        3.098741      3.098740   1.000000   1.000000
  100        4.409543      4.409542   1.000000   1.000000
  101        4.421610      4.421609   1.000000   1.000000
  102        4.718291      4.718287   1.000000   1.000000
  103        4.805670      4.805664   1.000000   1.000000
  104        5.074077      5.074076   1.000000   1.000000
  105        5.166858      5.166851   1.000000   1.000000
  106        5.178558      5.178551   1.000000   1.000000
  107        5.555450      5.555452   1.000000   1.000000
  108        5.596713      5.596716   1.000000   1.000000
  109        5.670987      5.670983   1.000000   1.000000
  110        5.790663      5.790659   1.000000   1.000000
  111        5.835076      5.835071   1.000000   1.000000
  112        5.855437      5.855434   1.000000   1.000000
  113        5.960609      5.960603   1.000000   1.000000
  114        5.973643      5.973637   1.000000   1.000000
  115        6.003099      6.003093   1.000000   1.000000
  116        6.387748      6.387754   1.000000   1.000000
  117        6.398069      6.398064   1.000000   1.000000
  118        6.406453      6.406448   1.000000   1.000000
  119        6.487297      6.487303   1.000000   1.000000
  120        6.611517      6.611511   1.000000   1.000000
  121        6.613462      6.613456   1.000000   1.000000
  122        6.644700      6.644694   1.000000   1.000000
  123        6.659188      6.659181   1.000000   1.000000
  124        6.891012      6.891008   1.000000   1.000000
  125        6.972058      6.972057   1.000000   1.000000
  126        7.207477      7.207473   1.000000   1.000000
  127        7.238041      7.238037   1.000000   1.000000
  128        7.292010      7.292002   1.000000   1.000000
  129        8.217534      8.217538   1.000000   1.000000
  130        8.358741      8.358750   0.932426   0.932392
  131        8.697056      8.697049   0.000000   0.000000
  132        8.794991      8.794994   0.000000   0.000000
  133        8.851304      8.851298   0.000000   0.000000
  134        9.156374      9.156367   0.000000   0.000000
  135        9.652193      9.652189   0.000000   0.000000
  136        9.731032      9.731029   0.000000   0.000000
  137        9.776863      9.776860   0.000000   0.000000
  138       10.143869     10.143865   0.000000   0.000000
  139       10.163670     10.163666   0.000000   0.000000
  140       10.462153     10.462165   0.000000   0.000000
  141       10.468964     10.468959   0.000000   0.000000
  142       10.710625     10.710632   0.000000   0.000000
  143       10.878711     10.878720   0.000000   0.000000
  144       11.041734     11.041730   0.000000   0.000000
  145       11.364376     11.364373   0.000000   0.000000
  146       11.478852     11.478850   0.000000   0.000000
  147       11.875187     11.875186   0.000000   0.000000
  148       12.000409     12.000414   0.000000   0.000000
  149       12.004467     12.004472   0.000000   0.000000
  150       13.140674     13.140668   0.000000   0.000000
  151       13.405242     13.405245   0.000000   0.000000
  152       13.411526     13.411529   0.000000   0.000000
  153       13.746544     13.746545   0.000000   0.000000
  154       14.017632     14.017634   0.000000   0.000000
  155       14.108135     14.108136   0.000000   0.000000
  156       14.166272     14.166276   0.000000   0.000000
  157       14.347784     14.347780   0.000000   0.000000
  158       14.396221     14.396221   0.000000   0.000000
  159       14.476126     14.476126   0.000000   0.000000
  160       14.555692     14.555691   0.000000   0.000000
  161       14.963839     14.963843   0.000000   0.000000
  162       15.032526     15.032531   0.000000   0.000000
  163       15.099314     15.099318   0.000000   0.000000
  164       15.105513     15.105516   0.000000   0.000000
  165       15.106654     15.106656   0.000000   0.000000
  166       15.317766     15.317767   0.000000   0.000000
  167       15.508782     15.508787   0.000000   0.000000
  168       15.592960     15.592957   0.000000   0.000000

  0.0000000E+00  0.0000000E+00  0.5263158E-01  0.5555556E-02
    1      -13.076932    -13.076927   1.000000   1.000000
    2      -13.070174    -13.070169   1.000000   1.000000
    3      -13.068399    -13.068394   1.000000   1.000000
    4      -13.040487    -13.040483   1.000000   1.000000
    5      -13.039664    -13.039659   1.000000   1.000000
    6      -13.035696    -13.035692   1.000000   1.000000
    7      -13.026496    -13.026491   1.000000   1.000000
    8      -13.026315    -13.026310   1.000000   1.000000
    9      -13.017344    -13.017339   1.000000   1.000000
   10      -13.006569    -13.006564   1.000000   1.000000
   11      -13.003996    -13.003991   1.000000   1.000000
   12      -13.003533    -13.003528   1.000000   1.000000
   13      -13.002155    -13.002150   1.000000   1.000000
   14      -12.997580    -12.997575   1.000000   1.000000
   15      -12.995617    -12.995612   1.000000   1.000000
   16      -12.979562    -12.979557   1.000000   1.000000
   17      -12.979204    -12.979199   1.000000   1.000000
   18      -12.978885    -12.978881   1.000000   1.000000
   19      -12.977067    -12.977062   1.000000   1.000000
   20      -12.956159    -12.956154   1.000000   1.000000
   21      -12.955609    -12.955604   1.000000   1.000000
   22      -12.954333    -12.954328   1.000000   1.000000
   23      -12.950970    -12.950965   1.000000   1.000000
   24      -12.948647    -12.948642   1.000000   1.000000
   25      -12.945609    -12.945604   1.000000   1.000000
   26      -12.944951    -12.944946   1.000000   1.000000
   27      -12.944250    -12.944245   1.000000   1.000000
   28      -12.937416    -12.937411   1.000000   1.000000
   29      -12.935895    -12.935891   1.000000   1.000000
   30      -12.935580    -12.935576   1.000000   1.000000
   31      -12.931398    -12.931393   1.000000   1.000000
   32      -12.929254    -12.929249   1.000000   1.000000
   33      -12.924955    -12.924949   1.000000   1.000000
   34      -12.922398    -12.922393   1.000000   1.000000
   35      -12.920106    -12.920101   1.000000   1.000000
   36      -12.919261    -12.919257   1.000000   1.000000
   37      -12.914846    -12.914841   1.000000   1.000000
   38      -12.914625    -12.914620   1.000000   1.000000
   39      -12.910240    -12.910235   1.000000   1.000000
   40      -12.908221    -12.908216   1.000000   1.000000
   41      -12.901018    -12.901012   1.000000   1.000000
   42      -12.889551    -12.889546   1.000000   1.000000
   43      -12.887173    -12.887168   1.000000   1.000000
   44      -12.885112    -12.885107   1.000000   1.000000
   45      -12.884192    -12.884187   1.000000   1.000000
   46      -12.882138    -12.882133   1.000000   1.000000
   47      -12.878886    -12.878881   1.000000   1.000000
   48      -12.870268    -12.870263   1.000000   1.000000
   49      -12.870225    -12.870221   1.000000   1.000000
   50      -12.865041    -12.865035   1.000000   1.000000
   51      -12.861339    -12.861334   1.000000   1.000000
   52      -12.860224    -12.860219   1.000000   1.000000
   53      -12.858611    -12.858605   1.000000   1.000000
   54      -12.856996    -12.856991   1.000000   1.000000
   55      -12.852067    -12.852063   1.000000   1.000000
   56      -12.850303    -12.850298   1.000000   1.000000
   57      -12.849676    -12.849671   1.000000   1.000000
   58      -12.848900    -12.848895   1.000000   1.000000
   59      -12.843141    -12.843136   1.000000   1.000000
   60      -12.841092    -12.841087   1.000000   1.000000
   61      -12.840568    -12.840562   1.000000   1.000000
   62      -12.838153    -12.838148   1.000000   1.000000
   63      -12.828832    -12.828827   1.000000   1.000000
   64      -12.823352    -12.823346   1.000000   1.000000
   65      -12.822513    -12.822508   1.000000   1.000000
   66      -12.822182    -12.822177   1.000000   1.000000
   67      -12.820246    -12.820241   1.000000   1.000000
   68      -12.819844    -12.819839   1.000000   1.000000
   69      -12.819258    -12.819253   1.000000   1.000000
   70      -12.817759    -12.817754   1.000000   1.000000
   71      -12.814158    -12.814153   1.000000   1.000000
   72      -12.812839    -12.812834   1.000000   1.000000
   73      -12.806534    -12.806529   1.000000   1.000000
   74      -12.790425    -12.790420   1.000000   1.000000
   75      -12.783747    -12.783741   1.000000   1.000000
   76      -12.778866    -12.778861   1.000000   1.000000
   77      -12.778612    -12.778607   1.000000   1.000000
   78      -12.764174    -12.764169   1.000000   1.000000
   79      -12.763944    -12.763938   1.000000   1.000000
   80      -12.758028    -12.758023   1.000000   1.000000
   81       -2.796054     -2.796050   1.000000   1.000000
   82       -1.968879     -1.968871   1.000000   1.000000
   83       -1.076135     -1.076138   1.000000   1.000000
   84        0.557064      0.557067   1.000000   1.000000
   85        0.599879      0.599882   1.000000   1.000000
   86        0.633099      0.633100   1.000000   1.000000
   87        0.668870      0.668871   1.000000   1.000000
   88        1.297839      1.297845   1.000000   1.000000
   89        1.370268      1.370270   1.000000   1.000000
   90        1.452428      1.452435   1.000000   1.000000
   91        1.705913      1.705912   1.000000   1.000000
   92        2.202886      2.202886   1.000000   1.000000
   93        2.306081      2.306082   1.000000   1.000000
   94        2.376012      2.376013   1.000000   1.000000
   95        2.384361      2.384361   1.000000   1.000000
   96        2.423775      2.423776   1.000000   1.000000
   97        3.098518      3.098518   1.000000   1.000000
   98        3.104262      3.104262   1.000000   1.000000
   99        3.116979      3.116979   1.000000   1.000000
  100        4.467024      4.467023   1.000000   1.000000
  101        4.484799      4.484798   1.000000   1.000000
  102        4.573941      4.573937   1.000000   1.000000
  103        4.814912      4.814906   1.000000   1.000000
  104        5.136002      5.135995   1.000000   1.000000
  105        5.181504      5.181502   1.000000   1.000000
  106        5.181962      5.181955   1.000000   1.000000
  107        5.416785      5.416787   1.000000   1.000000
  108        5.554854      5.554855   1.000000   1.000000
  109        5.641237      5.641233   1.000000   1.000000
  110        5.751289      5.751286   1.000000   1.000000
  111        5.852098      5.852093   1.000000   1.000000
  112        5.899427      5.899424   1.000000   1.000000
  113        5.950950      5.950944   1.000000   1.000000
  114        5.962899      5.962892   1.000000   1.000000
  115        6.011789      6.011783   1.000000   1.000000
  116        6.218762      6.218767   1.000000   1.000000
  117        6.342165      6.342159   1.000000   1.000000
  118        6.359732      6.359726   1.000000   1.000000
  119        6.539377      6.539383   1.000000   1.000000
  120        6.656104      6.656098   1.000000   1.000000
  121        6.662142      6.662136   1.000000   1.000000
  122        6.669073      6.669067   1.000000   1.000000
  123        6.714143      6.714136   1.000000   1.000000
  124        6.968042      6.968037   1.000000   1.000000
  125        7.078152      7.078149   1.000000   1.000000
  126        7.236709      7.236704   1.000000   1.000000
  127        7.253391      7.253388   1.000000   1.000000
  128        7.382249      7.382243   1.000000   1.000000
  129        8.235501      8.235505   1.000000   1.000000
  130        8.436147      8.436156   0.243449   0.243367
  131        8.496361      8.496354   0.008234   0.008239
  132        8.813751      8.813754   0.000000   0.000000
  133        8.854068      8.854062   0.000000   0.000000
  134        9.332820      9.332814   0.000000   0.000000
  135        9.648542      9.648538   0.000000   0.000000
  136        9.650851      9.650850   0.000000   0.000000
  137        9.824050      9.824047   0.000000   0.000000
  138       10.122270     10.122268   0.000000   0.000000
  139       10.154912     10.154908   0.000000   0.000000
  140       10.276572     10.276567   0.000000   0.000000
  141       10.442174     10.442186   0.000000   0.000000
  142       10.840205     10.840210   0.000000   0.000000
  143       10.978919     10.978915   0.000000   0.000000
  144       10.981228     10.981237   0.000000   0.000000
  145       11.346999     11.346997   0.000000   0.000000
  146       11.720238     11.720235   0.000000   0.000000
  147       11.901520     11.901518   0.000000   0.000000
  148       12.019180     12.019185   0.000000   0.000000
  149       12.033577     12.033580   0.000000   0.000000
  150       13.177932     13.177927   0.000000   0.000000
  151       13.183288     13.183290   0.000000   0.000000
  152       13.207416     13.207419   0.000000   0.000000
  153       13.663602     13.663602   0.000000   0.000000
  154       13.808267     13.808269   0.000000   0.000000
  155       14.052672     14.052677   0.000000   0.000000
  156       14.120801     14.120801   0.000000   0.000000
  157       14.407815     14.407812   0.000000   0.000000
  158       14.469349     14.469351   0.000000   0.000000
  159       14.560610     14.560610   0.000000   0.000000
  160       14.711335     14.711334   0.000000   0.000000
  161       14.769421     14.769425   0.000000   0.000000
  162       14.998220     14.998218   0.000000   0.000000
  163       15.052711     15.052720   0.000000   0.000000
  164       15.076480     15.076482   0.000000   0.000000
  165       15.096802     15.096806   0.000000   0.000000
  166       15.258946     15.259089   0.000000   0.000000
  167       15.562302     15.560910   0.000000   0.000000
  168       15.571891     15.588112   0.000000   0.000000

  0.0000000E+00  0.0000000E+00  0.7894737E-01  0.5555556E-02
    1      -13.076649    -13.076644   1.000000   1.000000
    2      -13.069769    -13.069764   1.000000   1.000000
    3      -13.068163    -13.068158   1.000000   1.000000
    4      -13.040588    -13.040583   1.000000   1.000000
    5      -13.039889    -13.039884   1.000000   1.000000
    6      -13.036156    -13.036151   1.000000   1.000000