CeO2
   1.00000000000000
     4.737270    0.000000    0.000000
     0.000000    4.737270    0.000000
     0.000000    0.000000    3.186383
   O    Sn
     4     2
Direct
  0.305317  0.305317  0.000000
  0.694683  0.694683  0.000000
  0.805317  0.194683  0.500000
  0.194683  0.805317  0.500000
  0.000000  0.000000  0.000000
  0.500000  0.500000  0.500000

   64   64   48
 0.89950088888E+08 0.12403923077E+06 0.32926211900E+05 0.75301976511E+04 0.24654041277E+04
 0.17605602031E+04 0.12520970700E+04 0.78541267823E+03 0.45792267871E+03 0.25862386506E+03
 0.14486175413E+03 0.81477269156E+02 0.46295911611E+02 0.26639730421E+02 0.15529094889E+02
 0.91624700594E+01 0.54660309501E+01 0.32910637197E+01 0.19980639203E+01 0.12212509868E+01
 0.75117845582E+00 0.46424694002E+00 0.28848748410E+00 0.17985199244E+00 0.11283915308E+00
 0.70934344617E-01 0.45077965713E-01 0.28713044506E-01 0.18793944710E-01 0.12455248089E-01
 0.89791683078E-02 0.69071581968E-02 0.64645842649E-02 0.69071582060E-02 0.89791683114E-02
 0.12455248089E-01 0.18793944711E-01 0.28713044506E-01 0.45077965713E-01 0.70934344617E-01
 0.11283915308E+00 0.17985199244E+00 0.28848748410E+00 0.46424694002E+00 0.75117845582E+00
 0.12212509868E+01 0.19980639203E+01 0.32910637197E+01 0.54660309501E+01 0.91624700594E+01
 0.15529094889E+02 0.26639730421E+02 0.46295911611E+02 0.81477269156E+02 0.14486175413E+03
 0.25862386506E+03 0.45792267871E+03 0.78541267823E+03 0.12520970700E+04 0.17605602031E+04
 0.24654041277E+04 0.75301976511E+04 0.32926211900E+05 0.12403923077E+06 0.12403923077E+06
 0.58132508522E+05 0.24397832502E+05 0.58802969385E+04 0.23140389049E+04 0.17123129027E+04
 0.12096958474E+04 0.75723110389E+03 0.44219151960E+03 0.25047029123E+03 0.14073939915E+03
 0.79395816287E+02 0.45232621584E+02 0.26086462887E+02 0.15236468549E+02 0.90047936009E+01
 0.53793685924E+01 0.32428499960E+01 0.19707477338E+01 0.12056813300E+01 0.74212398444E+00
 0.45903446131E+00 0.28540205093E+00 0.17807734332E+00 0.11175695423E+00 0.70320121240E-01
 0.44707551288E-01 0.28516909262E-01 0.18677193142E-01 0.12426096780E-01 0.89413279379E-02
 0.69114984501E-02 0.64682390832E-02 0.69114995237E-02 0.89413259739E-02 0.12426099089E-01
 0.18677187710E-01 0.28516920197E-01 0.44707484698E-01 0.70320383632E-01 0.11175659703E+00
 0.17807688766E+00 0.28540235671E+00 0.45903528322E+00 0.74212497450E+00 0.12056823172E+01
 0.19707485294E+01 0.32428502378E+01 0.53793681081E+01 0.90047933150E+01 0.15236468788E+02
 0.26086462772E+02 0.45232621580E+02 0.79395816249E+02 0.14073939917E+03 0.25047029124E+03
 0.44219151960E+03 0.75723110389E+03 0.12096958475E+04 0.17123129027E+04 0.23140389049E+04
 0.58802969385E+04 0.24397832502E+05 0.58132508522E+05 0.32926211900E+05 0.24397832502E+05
 0.98863774438E+04 0.33542216934E+04 0.20342468852E+04 0.15697936799E+04 0.10885818144E+04
 0.67876969793E+03 0.39855095456E+03 0.22775432135E+03 0.12918001449E+03 0.73515525759E+02
 0.42213245344E+02 0.24507228131E+02 0.14397187522E+02 0.85504573189E+01 0.51287172748E+01
 0.31030236633E+01 0.18913110470E+01 0.11603773716E+01 0.71576750728E+00 0.44381134279E+00
 0.27632749549E+00 0.17286343932E+00 0.10857036490E+00 0.68576976012E-01 0.43581983017E-01
 0.27991478946E-01 0.18293301804E-01 0.12324664131E-01 0.88288725848E-02 0.69683522433E-02
 0.64028909345E-02 0.69683503941E-02 0.88288760033E-02 0.12324656894E-01 0.18293308196E-01
 0.27991452559E-01 0.43582114193E-01 0.68576445175E-01 0.10857109366E+00 0.17286436254E+00
 0.27632686845E+00 0.44380966819E+00 0.71576549378E+00 0.11603753652E+01 0.18913094286E+01
 0.31030231702E+01 0.51287182582E+01 0.85504579069E+01 0.14397187047E+02 0.24507228372E+02
 0.42213245360E+02 0.73515525843E+02 0.12918001447E+03 0.22775432134E+03 0.39855095456E+03
 0.67876969794E+03 0.10885818144E+04 0.15697936799E+04 0.20342468852E+04 0.33542216934E+04
 0.98863774438E+04 0.24397832502E+05 0.75301976511E+04 0.58802969385E+04 0.33542216934E+04
 0.21991448962E+04 0.17605606912E+04 0.13395952142E+04 0.90890660222E+03 0.56654138901E+03
 0.33630468252E+03 0.19505334788E+03 0.11232664392E+03 0.64833852631E+02 0.37691193079E+02
 0.22122289645E+02 0.13115867083E+02 0.78512999134E+01 0.47404389939E+01 0.28850351562E+01
 0.17669356184E+01 0.10890178179E+01 0.67414145544E+00 0.41964828121E+00 0.26197731916E+00
 0.16455578335E+00 0.10352860907E+00 0.65754373980E-01 0.41823156987E-01 0.27144150556E-01
 0.17723296187E-01 0.12196286102E-01 0.86765782252E-02 0.70598265368E-02 0.63718579361E-02
 0.70598292375E-02 0.86765713958E-02 0.12196292461E-01 0.17723279744E-01 0.27144183216E-01
 0.41822953428E-01 0.65755182955E-01 0.10352748189E+00 0.16455437475E+00 0.26197831033E+00
 0.41965088584E+00 0.67414457841E+00 0.10890209319E+01 0.17669381415E+01 0.28850359437E+01
 0.47404375000E+01 0.78512990067E+01 0.13115867807E+02 0.22122289272E+02 0.37691193046E+02
 0.64833852496E+02 0.11232664396E+03 0.19505334791E+03 0.33630468252E+03 0.56654138900E+03
 0.90890660223E+03 0.13395952141E+04 0.17605606912E+04 0.21991448962E+04 0.33542216934E+04
 0.58802969385E+04 0.24654041277E+04 0.23140389049E+04 0.20342468852E+04 0.17605606912E+04
 0.14301115990E+04 0.10503722105E+04 0.70394319874E+03 0.44219135886E+03 0.26709114107E+03
 0.15811333924E+03 0.92918436386E+02 0.54638346241E+02 0.32292573973E+02 0.19225355673E+02
 0.11538530901E+02 0.69810602224E+01 0.42526540532E+01 0.26086021506E+01 0.16082509148E+01
 0.99729531716E+00 0.62050285384E+00 0.38825357613E+00 0.24333339786E+00 0.15364248185E+00
 0.96984121757E-01 0.62052897334E-01 0.39584532401E-01 0.26021936783E-01 0.17043956563E-01
 0.12018164270E-01 0.85602709306E-02 0.72060961206E-02 0.63837055222E-02 0.72060917688E-02
 0.85602771674E-02 0.12018149655E-01 0.17043969856E-01 0.26021884647E-01 0.39584800126E-01
 0.62051783446E-01 0.96985687544E-01 0.15364439947E+00 0.24333196236E+00 0.38824990478E+00
 0.62049847542E+00 0.99729095292E+00 0.16082473596E+01 0.26086010078E+01 0.42526560850E+01
 0.69810614897E+01 0.11538529935E+02 0.19225356215E+02 0.32292574053E+02 0.54638346451E+02
 0.92918436335E+02 0.15811333918E+03 0.26709114108E+03 0.44219135887E+03 0.70394319872E+03
 0.10503722105E+04 0.14301115989E+04 0.17605606912E+04 0.20342468852E+04 0.23140389049E+04
 0.17605602031E+04 0.17123129027E+04 0.15697936799E+04 0.13395952142E+04 0.10503722105E+04
 0.75723170798E+03 0.50902128406E+03 0.32524240860E+03 0.20112731896E+03 0.12210182916E+03
 0.73515730104E+02 0.44198398178E+02 0.26640085538E+02 0.16134447822E+02 0.98269042939E+01
 0.60212114296E+01 0.37086192353E+01 0.22963358851E+01 0.14277723891E+01 0.89172367004E+00
 0.55863644088E+00 0.35156028367E+00 0.22173409654E+00 0.14073127348E+00 0.89471163277E-01
 0.57560924005E-01 0.37134479432E-01 0.24628825840E-01 0.16464849953E-01 0.11766174729E-01
 0.86514979340E-02 0.73342137263E-02 0.66520876347E-02 0.73342179497E-02 0.86514864465E-02
 0.11766186287E-01 0.16464824386E-01 0.24628879679E-01 0.37134126818E-01 0.57562350363E-01
 0.89469056378E-01 0.14072876268E+00 0.22173604143E+00 0.35156515726E+00 0.55864221718E+00
 0.89172942983E+00 0.14277771191E+01 0.22963374356E+01 0.37086166066E+01 0.60212097289E+01
 0.98269054764E+01 0.16134447028E+02 0.26640085336E+02 0.44198397837E+02 0.73515730173E+02
 0.12210182928E+03 0.20112731893E+03 0.32524240858E+03 0.50902128408E+03 0.75723170796E+03
 0.10503722105E+04 0.13395952141E+04 0.15697936799E+04 0.17123129027E+04 0.12520970700E+04
 0.12096958474E+04 0.10885818144E+04 0.90890660222E+03 0.70394319874E+03 0.50902128406E+03
 0.34780249572E+03 0.22775500619E+03 0.14486132383E+03 0.90483385116E+02 0.55970089879E+02
 0.34487787639E+02 0.21245233991E+02 0.13115984871E+02 0.81229199795E+01 0.50483238290E+01
 0.31493363249E+01 0.19709643802E+01 0.12378198305E+01 0.77941500077E+00 0.49248845507E+00
 0.31189621621E+00 0.19839990869E+00 0.12657369076E+00 0.81383729812E-01 0.52651843887E-01
 0.34627088444E-01 0.23116443644E-01 0.16035296225E-01 0.11537230386E-01 0.89961642258E-02
 0.75411475041E-02 0.71885630498E-02 0.75411407723E-02 0.89961738038E-02 0.11537209341E-01
 0.16035313271E-01 0.23116359928E-01 0.34627480415E-01 0.52649979300E-01 0.81386342088E-01
 0.12657660164E+00 0.19839688091E+00 0.31188933922E+00 0.49248040370E+00 0.77940697834E+00
 0.12378131313E+01 0.19709619206E+01 0.31493393153E+01 0.50483258287E+01 0.81229185255E+01
 0.13115986061E+02 0.21245234471E+02 0.34487788176E+02 0.55970089694E+02 0.90483384853E+02
 0.14486132391E+03 0.22775500621E+03 0.34780249569E+03 0.50902128408E+03 0.70394319872E+03
 0.90890660223E+03 0.10885818144E+04 0.12096958475E+04 0.78541267823E+03 0.75723110389E+03
 0.67876969793E+03 0.56654138901E+03 0.44219135886E+03 0.32524240860E+03 0.22775500619E+03
 0.15354135055E+03 0.10070393723E+03 0.64834274432E+02 0.41258629426E+02 0.26087109725E+02
 0.16447549721E+02 0.10362515732E+02 0.65340887062E+01 0.41246620343E+01 0.26087917530E+01
 0.16524587041E+01 0.10491204028E+01 0.66698165523E+00 0.42531168000E+00 0.27159241164E+00
 0.17436501933E+00 0.11218521588E+00 0.73013836749E-01 0.47750298244E-01 0.32081670414E-01
 0.21828195054E-01 0.15724466694E-01 0.11622989856E-01 0.95187861069E-02 0.81050457555E-02
 0.79338808041E-02 0.81050507738E-02 0.95187701205E-02 0.11622998339E-01 0.15724417720E-01
 0.21828209378E-01 0.32081031098E-01 0.47752215035E-01 0.73009690717E-01 0.11218039414E+00
 0.17436732024E+00 0.27159893276E+00 0.42531922894E+00 0.66698915320E+00 0.10491268232E+01
 0.16524601480E+01 0.26087869682E+01 0.41246592470E+01 0.65340904332E+01 0.10362514046E+02
 0.16447548971E+02 0.26087109277E+02 0.41258630209E+02 0.64834274924E+02 0.10070393695E+03
 0.15354135058E+03 0.22775500621E+03 0.32524240858E+03 0.44219135887E+03 0.56654138900E+03
 0.67876969794E+03 0.75723110389E+03 0.45792267871E+03 0.44219151960E+03 0.39855095456E+03
 0.33630468252E+03 0.26709114107E+03 0.20112731896E+03 0.14486132383E+03 0.10070393723E+03
 0.68151237710E+02 0.45231931129E+02 0.29620172479E+02 0.19225232377E+02 0.12410896892E+02
 0.79860067992E+01 0.51289985922E+01 0.32919993474E+01 0.21121046778E+01 0.13558270848E+01
 0.87054014602E+00 0.55979618386E+00 0.36030439105E+00 0.23269056937E+00 0.15064424817E+00
 0.98327641619E-01 0.64648511183E-01 0.43351316119E-01 0.29586241711E-01 0.21050143760E-01
 0.15517313418E-01 0.12282728586E-01 0.10203352393E-01 0.92769083130E-02 0.88454187685E-02
 0.92769003555E-02 0.10203352133E-01 0.12282682209E-01 0.15517230820E-01 0.21049797153E-01
 0.29586082329E-01 0.43346921485E-01 0.64649672461E-01 0.98325704113E-01 0.15062822167E+00
 0.23266490236E+00 0.36027482615E+00 0.55976695788E+00 0.87051463879E+00 0.13558128373E+01
 0.21121037218E+01 0.32919980303E+01 0.51289926326E+01 0.79860062087E+01 0.12410895694E+02
 0.19225230923E+02 0.29620170299E+02 0.45231931088E+02 0.68151238416E+02 0.10070393695E+03
 0.14486132391E+03 0.20112731893E+03 0.26709114108E+03 0.33630468252E+03 0.39855095456E+03
 0.44219151960E+03 0.25862386506E+03 0.25047029123E+03 0.22775432135E+03 0.19505334788E+03
 0.15811333924E+03 0.12210182916E+03 0.90483385116E+02 0.64834274432E+02 0.45231931129E+02
 0.30922003829E+02 0.20821783871E+02 0.13868122184E+02 0.91634309338E+01 0.60211925836E+01
 0.39406917590E+01 0.25719560821E+01 0.16754287767E+01 0.10900778695E+01 0.70889101102E+00
 0.46110732590E+00 0.30028457975E+00 0.19609646750E+00 0.12869702850E+00 0.85217233141E-01
 0.57190541497E-01 0.39246280298E-01 0.27786294739E-01 0.20569722627E-01 0.16022112587E-01
 0.13271447025E-01 0.11624852781E-01 0.10803955244E-01 0.10525968318E-01 0.10803950459E-01
 0.11624810443E-01 0.13271326759E-01 0.16021686666E-01 0.20568491233E-01 0.27782127461E-01
 0.39240710615E-01 0.57164585151E-01 0.85174489734E-01 0.12864377856E+00 0.19602477170E+00
 0.30019790129E+00 0.46102095944E+00 0.70882143270E+00 0.10900258199E+01 0.16753846253E+01
 0.25719325340E+01 0.39406899256E+01 0.60211920275E+01 0.91634337800E+01 0.13868124686E+02
 0.20821784669E+02 0.30922001457E+02 0.45231931088E+02 0.64834274924E+02 0.90483384853E+02
 0.12210182928E+03 0.15811333918E+03 0.19505334791E+03 0.22775432134E+03 0.25047029124E+03
 0.14486175413E+03 0.14073939915E+03 0.12918001449E+03 0.11232664392E+03 0.92918436386E+02
 0.73515730104E+02 0.55970089879E+02 0.41258629426E+02 0.29620172479E+02 0.20821783871E+02
 0.14397028793E+02 0.98276784587E+01 0.66425966929E+01 0.44552193275E+01 0.29708367760E+01
 0.19719089265E+01 0.13045859647E+01 0.86106078042E+00 0.56770671382E+00 0.37422062243E+00
 0.24712989833E+00 0.16368423313E+00 0.10920642468E+00 0.73654985140E-01 0.50775238493E-01
 0.36023361652E-01 0.26714091154E-01 0.20791400928E-01 0.17211639518E-01 0.14978715222E-01
 0.13774896847E-01 0.13082252212E-01 0.12933375285E-01 0.13082210170E-01 0.13774793929E-01
 0.14978199846E-01 0.17209942076E-01 0.20785658599E-01 0.26697767842E-01 0.35973490807E-01
 0.50675761125E-01 0.73435608694E-01 0.10879962885E+00 0.16309022383E+00 0.24641910517E+00
 0.37351478302E+00 0.56712703270E+00 0.86066799441E+00 0.13043799886E+01 0.19718187797E+01
 0.29707928730E+01 0.44552064366E+01 0.66425927716E+01 0.98276798617E+01 0.14397031849E+02
 0.20821784669E+02 0.29620170299E+02 0.41258630209E+02 0.55970089694E+02 0.73515730173E+02
 0.92918436335E+02 0.11232664396E+03 0.12918001447E+03 0.14073939917E+03 0.81477269156E+02
 0.79395816287E+02 0.73515525759E+02 0.64833852631E+02 0.54638346241E+02 0.44198398178E+02
 0.34487787639E+02 0.26087109724E+02 0.19225232377E+02 0.13868122184E+02 0.98276784587E+01
 0.68660363382E+01 0.47413718428E+01 0.32440592691E+01 0.22029029377E+01 0.14873559484E+01
 0.10000099541E+01 0.67099349117E+00 0.45031916115E+00 0.30296818902E+00 0.20429251623E+00
 0.13819278193E+00 0.93960033285E-01 0.64892803823E-01 0.46012212386E-01 0.34065423024E-01
 0.26576070413E-01 0.22044524904E-01 0.19276214877E-01 0.17733684859E-01 0.16825084452E-01
 0.16443161974E-01 0.16280669638E-01 0.16443083762E-01 0.16824630074E-01 0.17731972638E-01
 0.19269499743E-01 0.22020625126E-01 0.26497523565E-01 0.33841804601E-01 0.45410338704E-01
 0.63594521476E-01 0.91569546916E-01 0.13451635278E+00 0.19972939757E+00 0.29844671097E+00
 0.44674058555E+00 0.66870271003E+00 0.99878449406E+00 0.14867985141E+01 0.22026981456E+01
 0.32439854548E+01 0.47413488718E+01 0.68660302473E+01 0.98276798617E+01 0.13868124686E+02
 0.19225230923E+02 0.26087109277E+02 0.34487788176E+02 0.44198397837E+02 0.54638346451E+02
 0.64833852497E+02 0.73515525843E+02 0.79395816249E+02 0.46295911611E+02 0.45232621584E+02
 0.42213245345E+02 0.37691193079E+02 0.32292573973E+02 0.26640085538E+02 0.21245233991E+02
 0.16447549721E+02 0.12410896892E+02 0.91634309338E+01 0.66425966929E+01 0.47413718427E+01
 0.33414651629E+01 0.23299352727E+01 0.16110765344E+01 0.11075781226E+01 0.76080241035E+00
 0.52649793554E+00 0.37086919024E+00 0.26616491535E+00 0.19141694470E+00 0.13466338467E+00
 0.92347569562E-01 0.63185494420E-01 0.44863880230E-01 0.34076864275E-01 0.27940210769E-01
 0.24476320360E-01 0.22640809732E-01 0.21656400329E-01 0.21238621508E-01 0.21025792383E-01
 0.21004466512E-01 0.21025513042E-01 0.21237302305E-01 0.21650616025E-01 0.22616471588E-01
 0.24382338243E-01 0.27602554451E-01 0.32985854642E-01 0.41801252447E-01 0.55715389293E-01
 0.77392058262E-01 0.11050142296E+00 0.16062532029E+00 0.23568963817E+00 0.34742211386E+00
 0.51224654863E+00 0.75380551598E+00 0.11047504072E+01 0.16100757723E+01 0.23296273000E+01
 0.33413765772E+01 0.47413488717E+01 0.66425927717E+01 0.91634337800E+01 0.12410895694E+02
 0.16447548971E+02 0.21245234471E+02 0.26640085336E+02 0.32292574053E+02 0.37691193046E+02
 0.42213245360E+02 0.45232621580E+02 0.26639730421E+02 0.26086462887E+02 0.24507228131E+02
 0.22122289645E+02 0.19225355673E+02 0.16134447822E+02 0.13115984871E+02 0.10362515732E+02
 0.79860067992E+01 0.60211925837E+01 0.44552193276E+01 0.32440592691E+01 0.23299352727E+01
 0.16549382932E+01 0.11668818154E+01 0.82478360525E+00 0.60041257108E+00 0.47450243926E+00
 0.42109309035E+00 0.39294162403E+00 0.33936089859E+00 0.25033099057E+00 0.15783248697E+00
 0.91629006156E-01 0.55341578878E-01 0.38622692079E-01 0.31523803646E-01 0.28659874762E-01
 0.27550956238E-01 0.27259858877E-01 0.27254588262E-01 0.27356494101E-01 0.27387946070E-01
 0.27355883849E-01 0.27250645334E-01 0.27242439051E-01 0.27470611454E-01 0.28316733168E-01
 0.30169581944E-01 0.33752269201E-01 0.39957305550E-01 0.50179549816E-01 0.66300218887E-01
 0.91173314976E-01 0.12877183370E+00 0.18484062072E+00 0.26739952833E+00 0.38790029870E+00
 0.56189156617E+00 0.81068482814E+00 0.11624664114E+01 0.16537167425E+01 0.23296273000E+01
 0.32439854548E+01 0.44552064367E+01 0.60211920276E+01 0.79860062088E+01 0.10362514046E+02
 0.13115986061E+02 0.16134447028E+02 0.19225356215E+02 0.22122289272E+02 0.24507228372E+02
 0.26086462772E+02 0.15529094889E+02 0.15236468549E+02 0.14397187522E+02 0.13115867084E+02
 0.11538530901E+02 0.98269042939E+01 0.81229199796E+01 0.65340887061E+01 0.51289985922E+01
 0.39406917590E+01 0.29708367761E+01 0.22029029377E+01 0.16110765345E+01 0.11668818154E+01
 0.84866711667E+00 0.65399385181E+00 0.61793291577E+00 0.80696332546E+00 0.12138941017E+01
 0.15903368432E+01 0.15701002103E+01 0.11280535350E+01 0.60867098950E+00 0.26788713413E+00
 0.11218944008E+00 0.56407430982E-01 0.39567230453E-01 0.35215975721E-01 0.34533433091E-01
 0.34872754353E-01 0.35389196827E-01 0.35799870749E-01 0.35938572752E-01 0.35797446110E-01
 0.35381161399E-01 0.34822239763E-01 0.34297256169E-01 0.34090847932E-01 0.34607006890E-01
 0.36376218144E-01 0.40168227835E-01 0.47012181417E-01 0.58416819462E-01 0.76371180101E-01
 0.10378542509E+00 0.14467203625E+00 0.20462173963E+00 0.29117547208E+00 0.41470853772E+00
 0.58872074465E+00 0.83070395722E+00 0.11624664114E+01 0.16100757724E+01 0.22026981457E+01
 0.29707928731E+01 0.39406899256E+01 0.51289926326E+01 0.65340904332E+01 0.81229185255E+01
 0.98269054764E+01 0.11538529935E+02 0.13115867807E+02 0.14397187047E+02 0.15236468788E+02
 0.91624700593E+01 0.90047936009E+01 0.85504573189E+01 0.78512999134E+01 0.69810602224E+01
 0.60212114296E+01 0.50483238290E+01 0.41246620343E+01 0.32919993473E+01 0.25719560822E+01
 0.19719089265E+01 0.14873559484E+01 0.11075781225E+01 0.82478360525E+00 0.65399385183E+00
 0.69803481227E+00 0.12995025976E+01 0.31687328917E+01 0.67516844966E+01 0.10347546795E+02
 0.10499230028E+02 0.69983733243E+01 0.32395052763E+01 0.11425299885E+01 0.34828745710E+00
 0.11478684789E+00 0.57205517166E-01 0.45393125721E-01 0.44158376462E-01 0.45045464078E-01
 0.46159315153E-01 0.46927799551E-01 0.47205256570E-01 0.46925836335E-01 0.46134305584E-01
 0.44935424660E-01 0.43520779329E-01 0.42160376450E-01 0.41212020339E-01 0.41163682624E-01
 0.42624149503E-01 0.46431914893E-01 0.53650032605E-01 0.65852924140E-01 0.85030435783E-01
 0.11398366834E+00 0.15647327016E+00 0.21761437370E+00 0.30394353715E+00 0.42410043857E+00
 0.58872074466E+00 0.81068482814E+00 0.11047504071E+01 0.14867985141E+01 0.19718187797E+01
 0.25719325340E+01 0.32919980302E+01 0.41246592471E+01 0.50483258287E+01 0.60212097289E+01
 0.69810614897E+01 0.78512990067E+01 0.85504579069E+01 0.90047933150E+01 0.54660309503E+01
 0.53793685924E+01 0.51287172747E+01 0.47404389939E+01 0.42526540531E+01 0.37086192353E+01
 0.31493363249E+01 0.26087917531E+01 0.21121046778E+01 0.16754287766E+01 0.13045859646E+01
 0.10000099540E+01 0.76080241023E+00 0.60041257098E+00 0.61793291580E+00 0.12995025976E+01
 0.45612600245E+01 0.15840075105E+02 0.42339750605E+02 0.74113240993E+02 0.75792683739E+02
 0.45022404677E+02 0.17246318368E+02 0.49000631992E+01 0.11744254146E+01 0.28015190394E+00
 0.94571941182E-01 0.60997517027E-01 0.57061096423E-01 0.58346105130E-01 0.60126743010E-01
 0.61330348340E-01 0.61782587901E-01 0.61324159849E-01 0.60084221502E-01 0.58101315225E-01
 0.55655557576E-01 0.52956087375E-01 0.50418671462E-01 0.48422774895E-01 0.47559667434E-01
 0.48467719646E-01 0.52043046856E-01 0.59312392199E-01 0.71799106649E-01 0.91394042421E-01
 0.12064102017E+00 0.16276846545E+00 0.22214735536E+00 0.30394353713E+00 0.41470853779E+00
 0.56189156607E+00 0.75380551585E+00 0.99878449403E+00 0.13043799885E+01 0.16753846253E+01
 0.21121037218E+01 0.26087869682E+01 0.31493393153E+01 0.37086166067E+01 0.42526560849E+01
 0.47404375000E+01 0.51287182582E+01 0.53793681081E+01 0.32910637198E+01 0.32428499960E+01
 0.31030236632E+01 0.28850351562E+01 0.26086021507E+01 0.22963358852E+01 0.19709643802E+01
 0.16524587041E+01 0.13558270848E+01 0.10900778695E+01 0.86106078043E+00 0.67099349116E+00
 0.52649793548E+00 0.47450243924E+00 0.80696332551E+00 0.31687328917E+01 0.15840075105E+02
 0.72489855024E+02 0.25535508940E+03 0.54948283247E+03 0.56737592831E+03 0.27760685636E+03
 0.81149769824E+02 0.17900732746E+02 0.34436121191E+01 0.65340271031E+00 0.16267514502E+00
 0.83469590641E-01 0.73888704468E-01 0.75427235372E-01 0.77929175898E-01 0.79730785441E-01
 0.80333026454E-01 0.79716367740E-01 0.77867001906E-01 0.74976596350E-01 0.71231220250E-01
 0.66986791844E-01 0.62581350263E-01 0.58503508202E-01 0.55206612250E-01 0.53292285752E-01
 0.53428300277E-01 0.56494201653E-01 0.63458137106E-01 0.75658440537E-01 0.94764693778E-01
 0.12295762770E+00 0.16276846551E+00 0.21761437371E+00 0.29117547213E+00 0.38790029868E+00
 0.51224654857E+00 0.66870271002E+00 0.86066799442E+00 0.10900258200E+01 0.13558128373E+01
 0.16524601480E+01 0.19709619206E+01 0.22963374356E+01 0.26086010079E+01 0.28850359437E+01
 0.31030231702E+01 0.32428502378E+01 0.19980639203E+01 0.19707477337E+01 0.18913110470E+01
 0.17669356184E+01 0.16082509148E+01 0.14277723891E+01 0.12378198305E+01 0.10491204028E+01
 0.87054014602E+00 0.70889101100E+00 0.56770671372E+00 0.45031916120E+00 0.37086919028E+00
 0.42109309035E+00 0.12138941017E+01 0.67516844966E+01 0.42339750605E+02 0.25535508940E+03
 0.13075698190E+04 0.41054561867E+04 0.43270207434E+04 0.14699193366E+04 0.29375481156E+03
 0.49005909827E+02 0.77332537743E+01 0.12465245125E+01 0.25717042676E+00 0.11199784116E+00
 0.95016745827E-01 0.96771767235E-01 0.10024220947E+00 0.10273614495E+00 0.10357374101E+00
 0.10271594474E+00 0.10015234171E+00 0.96108021769E-01 0.90835831094E-01 0.84723017291E-01
 0.78184925357E-01 0.71689501694E-01 0.65772740731E-01 0.60975617467E-01 0.57855439248E-01
 0.57050987836E-01 0.59352748607E-01 0.65643574541E-01 0.76997619226E-01 0.94764693731E-01
 0.12064102025E+00 0.15647327013E+00 0.20462173965E+00 0.26739952835E+00 0.34742211390E+00
 0.44674058560E+00 0.56712703267E+00 0.70882143269E+00 0.87051463881E+00 0.10491268233E+01
 0.12378131313E+01 0.14277771192E+01 0.16082473596E+01 0.17669381415E+01 0.18913094285E+01
 0.19707485294E+01 0.12212509866E+01 0.12056813300E+01 0.11603773716E+01 0.10890178179E+01
 0.99729531710E+00 0.89172367000E+00 0.77941500078E+00 0.66698165521E+00 0.55979618378E+00
 0.46110732590E+00 0.37422062242E+00 0.30296818904E+00 0.26616491536E+00 0.39294162405E+00
 0.15903368432E+01 0.10347546795E+02 0.74113240993E+02 0.54948283247E+03 0.41054561867E+04
 0.26423604913E+05 0.29777952696E+05 0.48194411711E+04 0.64639015198E+03 0.86990888352E+02
 0.12072707377E+02 0.17802890573E+01 0.34072027177E+00 0.14214728953E+00 0.12026296214E+00
 0.12295159181E+00 0.12769655278E+00 0.13106490003E+00 0.13218008740E+00 0.13104205846E+00
 0.12758512640E+00 0.12214462676E+00 0.11498101603E+00 0.10662239505E+00 0.97536787427E-01
 0.88331798573E-01 0.79485906550E-01 0.71581884419E-01 0.65173025316E-01 0.60795578745E-01
 0.58973382318E-01 0.60344577482E-01 0.65643574522E-01 0.75658440573E-01 0.91394042375E-01
 0.11398366834E+00 0.14467203624E+00 0.18484062074E+00 0.23568963818E+00 0.29844671100E+00
 0.37351478301E+00 0.46102095945E+00 0.55976695780E+00 0.66698915320E+00 0.77940697833E+00
 0.89172942980E+00 0.99729095287E+00 0.10890209319E+01 0.11603753652E+01 0.12056823172E+01
 0.75117845562E+00 0.74212398445E+00 0.71576750723E+00 0.67414145544E+00 0.62050285378E+00
 0.55863644092E+00 0.49248845507E+00 0.42531168001E+00 0.36030439103E+00 0.30028457977E+00
 0.24712989829E+00 0.20429251620E+00 0.19141694465E+00 0.33936089855E+00 0.15701002103E+01
 0.10499230028E+02 0.75792683739E+02 0.56737592831E+03 0.43270207434E+04 0.29777952696E+05
 0.33907775426E+05 0.50934876999E+04 0.66817728077E+03 0.89047983474E+02 0.12304927744E+02
 0.18251250885E+01 0.36714591445E+00 0.16897184730E+00 0.14943615554E+00 0.15431757351E+00
 0.16077498421E+00 0.16519184872E+00 0.16669563583E+00 0.16516893059E+00 0.16066255530E+00
 0.15350454124E+00 0.14410563949E+00 0.13307908982E+00 0.12100298849E+00 0.10857225717E+00
 0.96438274498E-01 0.85206866175E-01 0.75344278187E-01 0.67394794053E-01 0.61797141149E-01
 0.58973382264E-01 0.59352748651E-01 0.63458137086E-01 0.71799106704E-01 0.85030435729E-01
 0.10378542510E+00 0.12877183367E+00 0.16062532026E+00 0.19972939755E+00 0.24641910510E+00
 0.30019790131E+00 0.36027482614E+00 0.42531922896E+00 0.49248040372E+00 0.55864221722E+00
 0.62049847536E+00 0.67414457840E+00 0.71576549375E+00 0.74212497451E+00 0.46424694011E+00
 0.45903446131E+00 0.44381134280E+00 0.41964828121E+00 0.38825357611E+00 0.35156028367E+00
 0.31189621620E+00 0.27159241165E+00 0.23269056944E+00 0.19609646746E+00 0.16368423316E+00
 0.13819278196E+00 0.13466338472E+00 0.25033099058E+00 0.11280535350E+01 0.69983733243E+01
 0.45022404677E+02 0.27760685636E+03 0.14699193366E+04 0.48194411711E+04 0.50934876999E+04
 0.16580386297E+04 0.32012074078E+03 0.52300939641E+02 0.81844139267E+01 0.13575595059E+01
 0.33404685335E+00 0.19236482250E+00 0.18275570917E+00 0.19123085125E+00 0.19985581739E+00
 0.20557294274E+00 0.20750340449E+00 0.20555240481E+00 0.19976377688E+00 0.19055180263E+00
 0.17845904043E+00 0.16424195755E+00 0.14867190076E+00 0.13260620576E+00 0.11668972589E+00
 0.10171032975E+00 0.88206484270E-01 0.76661099726E-01 0.67394794037E-01 0.60795578760E-01
 0.57050987805E-01 0.56494201637E-01 0.59312392250E-01 0.65852924164E-01 0.76371180098E-01
 0.91173314989E-01 0.11050142303E+00 0.13451635281E+00 0.16309022383E+00 0.19602477165E+00
 0.23266490243E+00 0.27159893278E+00 0.31188933921E+00 0.35156515727E+00 0.38824990477E+00
 0.41965088583E+00 0.44380966820E+00 0.45903528322E+00 0.28848748406E+00 0.28540205093E+00
 0.27632749551E+00 0.26197731922E+00 0.24333339789E+00 0.22173409654E+00 0.19839990864E+00
 0.17436501935E+00 0.15064424825E+00 0.12869702852E+00 0.10920642467E+00 0.93960033280E-01
 0.92347569575E-01 0.15783248699E+00 0.60867098949E+00 0.32395052763E+01 0.17246318368E+02
 0.81149769824E+02 0.29375481156E+03 0.64639015198E+03 0.66817728077E+03 0.32012074078E+03
 0.91165552763E+02 0.19728515373E+02 0.38010236549E+01 0.79509975561E+00 0.28643355589E+00
 0.21746384529E+00 0.22082103847E+00 0.23370137444E+00 0.24486831862E+00 0.25210193691E+00
 0.25455743254E+00 0.25208693935E+00 0.24480408074E+00 0.23323293642E+00 0.21804422398E+00
 0.20015107784E+00 0.18053964663E+00 0.16019337971E+00 0.14012428728E+00 0.12101187371E+00
 0.10354081289E+00 0.88206484303E-01 0.75344278232E-01 0.65173025278E-01 0.57855439269E-01
 0.53428300289E-01 0.52043046786E-01 0.53650032605E-01 0.58416819418E-01 0.66300218883E-01
 0.77392058254E-01 0.91569546914E-01 0.10879962885E+00 0.12864377856E+00 0.15062822174E+00
 0.17436732026E+00 0.19839688087E+00 0.22173604141E+00 0.24333196237E+00 0.26197831039E+00
 0.27632686845E+00 0.28540235672E+00 0.17985199246E+00 0.17807734326E+00 0.17286343936E+00
 0.16455578333E+00 0.15364248181E+00 0.14073127345E+00 0.12657369076E+00 0.11218521585E+00
 0.98327641650E-01 0.85217233139E-01 0.73654985154E-01 0.64892803845E-01 0.63185494433E-01
 0.91629006139E-01 0.26788713415E+00 0.11425299885E+01 0.49000631992E+01 0.17900732746E+02
 0.49005909827E+02 0.86990888352E+02 0.89047983474E+02 0.52300939641E+02 0.19728515373E+02
 0.55743935755E+01 0.14084374922E+01 0.44334812735E+00 0.26376609040E+00 0.24892009643E+00
 0.26389284209E+00 0.28144019109E+00 0.29559879258E+00 0.30456719568E+00 0.30762785088E+00
 0.30456036484E+00 0.29555500270E+00 0.28118068861E+00 0.26240503428E+00 0.24033992161E+00
 0.21620875218E+00 0.19117428309E+00 0.16634136893E+00 0.14272175613E+00 0.12101187373E+00
 0.10171032976E+00 0.85206866150E-01 0.71581884471E-01 0.60975617484E-01 0.53292285737E-01
 0.48467719629E-01 0.46431914924E-01 0.47012181416E-01 0.50179549798E-01 0.55715389307E-01
 0.63594521498E-01 0.73435608716E-01 0.85174489730E-01 0.98325704144E-01 0.11218039411E+00
 0.12657660163E+00 0.14072876265E+00 0.15364439942E+00 0.16455437474E+00 0.17286436258E+00
 0.17807688761E+00 0.11283915300E+00 0.11175695430E+00 0.10857036492E+00 0.10352860916E+00
 0.96984121778E-01 0.89471163288E-01 0.81383729792E-01 0.73013836720E-01 0.64648511173E-01
 0.57190541535E-01 0.50775238501E-01 0.46012212383E-01 0.44863880259E-01 0.55341578862E-01
 0.11218944006E+00 0.34828745714E+00 0.11744254144E+01 0.34436121192E+01 0.77332537742E+01
 0.12072707377E+02 0.12304927744E+02 0.81844139268E+01 0.38010236549E+01 0.14084374922E+01
 0.53644028878E+00 0.30601077631E+00 0.27240307313E+00 0.28763939457E+00 0.31157078627E+00
 0.33372118327E+00 0.35096259573E+00 0.36178846268E+00 0.36552796854E+00 0.36178646110E+00
 0.35093595017E+00 0.33360375241E+00 0.31088652953E+00 0.28413704498E+00 0.25493025661E+00
 0.22475358959E+00 0.19486918750E+00 0.16634136893E+00 0.14012428726E+00 0.11668972594E+00
 0.96438274464E-01 0.79485906595E-01 0.65772740699E-01 0.55206612310E-01 0.47559667240E-01
 0.42624149536E-01 0.40168227821E-01 0.39957305536E-01 0.41801252478E-01 0.45410338703E-01
 0.50675761123E-01 0.57164585184E-01 0.64649672451E-01 0.73009690690E-01 0.81386342051E-01
 0.89469056388E-01 0.96985687569E-01 0.10352748199E+00 0.10857109368E+00 0.11175659710E+00
 0.70934344680E-01 0.70320121250E-01 0.68576976069E-01 0.65754373955E-01 0.62052897329E-01
 0.57560924001E-01 0.52651843857E-01 0.47750298235E-01 0.43351316148E-01 0.39246280284E-01
 0.36023361646E-01 0.34065423028E-01 0.34076864358E-01 0.38622692076E-01 0.56407431018E-01
 0.11478684788E+00 0.28015190398E+00 0.65340271033E+00 0.12465245125E+01 0.17802890573E+01
 0.18251250884E+01 0.13575595060E+01 0.79509975557E+00 0.44334812735E+00 0.30601077631E+00