CeO2                                    
   1.00000000000000     
     4.737270    0.000000    0.000000
     0.000000    4.737270    0.000000
     0.000000    0.000000    3.186383
   O    Sn
     4     2
Direct
  0.305317  0.305317  0.000000
  0.694683  0.694683  0.000000
  0.805317  0.194683  0.500000
  0.194683  0.805317  0.500000
  0.000000  0.000000  0.000000
  0.500000  0.500000  0.500000
 
   64   64   48
 0.19903603097E+05 0.50955111730E+02 0.58439902860E+02 0.32736539507E+01 0.31239750542E+02
 0.29082394306E+02 0.13625884969E+02 0.41425445331E+01 0.21307039067E+01 0.38843554579E+01
 0.64903998552E+01 0.86020296991E+01 0.98651110304E+01 0.10364682228E+02 0.10313058090E+02
 0.99139890735E+01 0.93199728999E+01 0.86306318099E+01 0.79050447494E+01 0.71765068462E+01
 0.64922574020E+01 0.57912346874E+01 0.51702754208E+01 0.46189363372E+01 0.41320869796E+01
 0.37083114853E+01 0.33478752150E+01 0.30508749948E+01 0.28160251354E+01 0.26403112938E+01
 0.25194954260E+01 0.24492056024E+01 0.24261775377E+01 0.24492056024E+01 0.25194954260E+01
 0.26403112938E+01 0.28160251354E+01 0.30508749948E+01 0.33478752150E+01 0.37083114853E+01
 0.41320869796E+01 0.46189363372E+01 0.51702754208E+01 0.57912346874E+01 0.64922574020E+01
 0.71765068462E+01 0.79050447494E+01 0.86306318099E+01 0.93199728999E+01 0.99139890735E+01
 0.10313058090E+02 0.10364682228E+02 0.98651110304E+01 0.86020296991E+01 0.64903998552E+01
 0.38843554579E+01 0.21307039067E+01 0.41425445331E+01 0.13625884969E+02 0.29082394306E+02
 0.31239750542E+02 0.32736539507E+01 0.58439902860E+02 0.50955111730E+02 0.50955111730E+02
 0.18868366441E+03 0.36568364076E+02 0.94104152688E+01 0.38869482269E+02 0.33010898558E+02
 0.15756425448E+02 0.54583594025E+01 0.30170547752E+01 0.45626530725E+01 0.71122826239E+01
 0.92630173732E+01 0.10614177001E+02 0.11217700366E+02 0.11264807933E+02 0.10947393062E+02
 0.10412378849E+02 0.97576873083E+01 0.90428389449E+01 0.84164490252E+01 0.75856946617E+01
 0.68339066728E+01 0.61459153096E+01 0.55130451559E+01 0.49328367803E+01 0.44074279815E+01
 0.39412189633E+01 0.35385256058E+01 0.32017970260E+01 0.29307456083E+01 0.27224762216E+01
 0.25724374825E+01 0.24758147645E+01 0.24289168734E+01 0.24301776093E+01 0.24805310509E+01
 0.25830822162E+01 0.27421959038E+01 0.29623476237E+01 0.32472181377E+01 0.35994658497E+01
 0.40213878655E+01 0.45163779095E+01 0.50907954465E+01 0.57556334515E+01 0.65272883414E+01
 0.71436315784E+01 0.78800737300E+01 0.85992760191E+01 0.92446643840E+01 0.97189076168E+01
 0.98705475262E+01 0.94932579662E+01 0.83627407357E+01 0.63594640272E+01 0.37549042382E+01
 0.17242089210E+01 0.29082890128E+01 0.10870094463E+02 0.25168593919E+02 0.30400596830E+02
 0.70968613867E+01 0.27697194948E+02 0.99656024330E+02 0.58439902860E+02 0.36568364076E+02
 0.11875711981E+01 0.31769189748E+02 0.48152527229E+02 0.34201085315E+02 0.16145137059E+02
 0.64061573686E+01 0.42213109069E+01 0.57672014209E+01 0.82751415713E+01 0.10434015159E+02
 0.11849704434E+02 0.12550355009E+02 0.12701706140E+02 0.12476774311E+02 0.12011372734E+02
 0.11398099562E+02 0.10694773175E+02 0.10044632430E+02 0.91708838253E+01 0.83495824703E+01
 0.75676482675E+01 0.68195685584E+01 0.61072934716E+01 0.54384777702E+01 0.48236919412E+01
 0.42734278320E+01 0.37956429404E+01 0.33943276194E+01 0.30692562121E+01 0.28167728703E+01
 0.26312442521E+01 0.25067477133E+01 0.24386237278E+01 0.24245995956E+01 0.24652474686E+01
 0.25636549776E+01 0.27244346619E+01 0.29525009290E+01 0.32522123722E+01 0.36273802160E+01
 0.40822978785E+01 0.46234915980E+01 0.52615177157E+01 0.60119999131E+01 0.66380890527E+01
 0.73849101147E+01 0.81297695526E+01 0.88204299010E+01 0.93657248104E+01 0.96219521707E+01
 0.93901627265E+01 0.84455090844E+01 0.66407658543E+01 0.41477750935E+01 0.18956755910E+01
 0.20907423943E+01 0.80258681829E+01 0.20920829230E+02 0.31908440544E+02 0.21389514716E+02
 0.97728629841E+00 0.27697194948E+02 0.32736539507E+01 0.94104152688E+01 0.31769189748E+02
 0.52033868920E+02 0.48073217839E+02 0.29896528747E+02 0.14289849027E+02 0.68467318770E+01
 0.56703888248E+01 0.74790033338E+01 0.10011008925E+02 0.12185312587E+02 0.13666496302E+02
 0.14473285406E+02 0.14744823442E+02 0.14631116769E+02 0.14252620196E+02 0.13693284951E+02
 0.13006774827E+02 0.12323008292E+02 0.11396774666E+02 0.10484282006E+02 0.95756818252E+01
 0.86704620746E+01 0.77772596620E+01 0.69116868694E+01 0.60928920463E+01 0.53398219656E+01
 0.46680593856E+01 0.40878011548E+01 0.36031735394E+01 0.32127559978E+01 0.29109784717E+01
 0.26900074299E+01 0.25417826446E+01 0.24598900697E+01 0.24409188846E+01 0.24849611300E+01
 0.25951069197E+01 0.27761696325E+01 0.30332721162E+01 0.33710821616E+01 0.37942259592E+01
 0.43087968522E+01 0.49242510062E+01 0.56547205593E+01 0.62954223614E+01 0.70509979292E+01
 0.78172944562E+01 0.85476545789E+01 0.91601661244E+01 0.95245898151E+01 0.94580596560E+01
 0.87469137539E+01 0.72264391563E+01 0.49690638825E+01 0.26230745217E+01 0.18370206410E+01
 0.53019081985E+01 0.15121635874E+02 0.28230174221E+02 0.33032244274E+02 0.21389514716E+02
 0.70968613867E+01 0.31239750542E+02 0.38869482269E+02 0.48152527229E+02 0.48073217839E+02
 0.36379931616E+02 0.21561353335E+02 0.11275749304E+02 0.71974407476E+01 0.74615919244E+01
 0.97091641571E+01 0.12335290037E+02 0.14557893448E+02 0.16130786751E+02 0.17072815058E+02
 0.17498137591E+02 0.17531273556E+02 0.17273612834E+02 0.16796173773E+02 0.16144220778E+02
 0.15426157836E+02 0.14440054368E+02 0.13410879275E+02 0.12333988919E+02 0.11217230093E+02
 0.10079913718E+02 0.89494408397E+01 0.78567134297E+01 0.68315724257E+01 0.58991679499E+01
 0.50776620867E+01 0.43772611888E+01 0.38003831231E+01 0.33427479675E+01 0.29952204445E+01
 0.27462052178E+01 0.25842628222E+01 0.25004573719E+01 0.24898973574E+01 0.25520706651E+01
 0.26899292803E+01 0.29081975785E+01 0.32118328156E+01 0.36055772664E+01 0.40949244320E+01
 0.46879246671E+01 0.53967289744E+01 0.60527897588E+01 0.68142240534E+01 0.75970192874E+01
 0.83608183853E+01 0.90348804865E+01 0.95060821342E+01 0.96138149982E+01 0.91645413294E+01
 0.79889184606E+01 0.60747010556E+01 0.38024468910E+01 0.22420539369E+01 0.32528965012E+01
 0.87546569484E+01 0.18562824420E+02 0.28230174221E+02 0.31908440544E+02 0.30400596830E+02
 0.29082394306E+02 0.33010898558E+02 0.34201085315E+02 0.29896528747E+02 0.21561353335E+02
 0.13556591297E+02 0.89619802551E+01 0.81135111230E+01 0.97636383654E+01 0.12471291307E+02
 0.15236556094E+02 0.17557560657E+02 0.19276004743E+02 0.20413933518E+02 0.21061197493E+02
 0.21314186205E+02 0.21249381227E+02 0.20917030866E+02 0.20345593719E+02 0.19611794190E+02
 0.18561893940E+02 0.17380944997E+02 0.16073699759E+02 0.14663573448E+02 0.13188994942E+02
 0.11696890920E+02 0.10235558582E+02 0.88488839229E+01 0.75728090571E+01 0.64338254236E+01
 0.54486714495E+01 0.46245349182E+01 0.39596262197E+01 0.34444616282E+01 0.30641699586E+01
 0.28016639487E+01 0.26410252974E+01 0.25702855592E+01 0.25829359981E+01 0.26778298829E+01
 0.28576580618E+01 0.31268398354E+01 0.34900609503E+01 0.39523105511E+01 0.45202373458E+01
 0.52037599026E+01 0.58720182072E+01 0.66347277782E+01 0.74278059212E+01 0.82170148925E+01
 0.89431839181E+01 0.95118512013E+01 0.97877889353E+01 0.96035829008E+01 0.87972600587E+01
 0.72990549233E+01 0.52789332246E+01 0.33269309501E+01 0.25301007079E+01 0.41605706717E+01
 0.87546569484E+01 0.15121635874E+02 0.20920829230E+02 0.25168593919E+02 0.13625884969E+02
 0.15756425448E+02 0.16145137059E+02 0.14289849027E+02 0.11275749304E+02 0.89619802551E+01
 0.85256466470E+01 0.99819021344E+01 0.12645310089E+02 0.15728859665E+02 0.18665339435E+02
 0.21159685006E+02 0.23120964549E+02 0.24571616964E+02 0.25575817471E+02 0.26195907312E+02
 0.26471759677E+02 0.26416892304E+02 0.26026210513E+02 0.25330194478E+02 0.24217248171E+02
 0.22827770567E+02 0.21184294493E+02 0.19340588028E+02 0.17371781119E+02 0.15360613381E+02
 0.13384561561E+02 0.11507487964E+02 0.97768805985E+01 0.82252161287E+01 0.68727357565E+01
 0.57294050602E+01 0.47954728664E+01 0.40616400050E+01 0.35103102288E+01 0.31185838514E+01
 0.28624371409E+01 0.27208727174E+01 0.26789171927E+01 0.27287709607E+01 0.28689528276E+01
 0.31020152651E+01 0.34321239686E+01 0.38638484045E+01 0.44026121482E+01 0.50560572937E+01
 0.57296062103E+01 0.64874385179E+01 0.72828894006E+01 0.80868550415E+01 0.88511740414E+01
 0.94995829917E+01 0.99224606144E+01 0.99812139890E+01 0.95313629408E+01 0.84755418386E+01
 0.68501830349E+01 0.49251895423E+01 0.32510314013E+01 0.25301007079E+01 0.32528965012E+01
 0.53019081985E+01 0.80258681829E+01 0.10870094463E+02 0.41425445331E+01 0.54583594025E+01
 0.64061573686E+01 0.68467318770E+01 0.71974407476E+01 0.81135111230E+01 0.99819021344E+01
 0.12734385630E+02 0.16005279898E+02 0.19378253609E+02 0.22542905841E+02 0.25335901314E+02
 0.27711204367E+02 0.29687516027E+02 0.31299074055E+02 0.32561539349E+02 0.33455907560E+02
 0.33929921694E+02 0.34018507200E+02 0.33367539932E+02 0.32200384294E+02 0.30507058585E+02
 0.28342580379E+02 0.25818382651E+02 0.23079708727E+02 0.20276893167E+02 0.17540364151E+02
 0.14966547062E+02 0.12616333768E+02 0.10522519560E+02 0.87000287449E+01 0.71535234465E+01
 0.58801540963E+01 0.48687798653E+01 0.40988981644E+01 0.35418947940E+01 0.31650344556E+01
 0.29367552373E+01 0.28313728557E+01 0.28318536801E+01 0.29300902361E+01 0.31249207690E+01
 0.34190281270E+01 0.38163703123E+01 0.43213080889E+01 0.49393040852E+01 0.56780049053E+01
 0.63531668084E+01 0.71412853594E+01 0.79472216344E+01 0.87320387865E+01 0.94358372613E+01
 0.99727250243E+01 0.10232535226E+02 0.10094569873E+02 0.94589090878E+01 0.82957822155E+01
 0.67012251519E+01 0.49251895423E+01 0.33269309501E+01 0.22420539369E+01 0.18370206410E+01
 0.20907423943E+01 0.29082890128E+01 0.21307039067E+01 0.30170547752E+01 0.42213109069E+01
 0.56703888248E+01 0.74615919244E+01 0.97636383654E+01 0.12645310089E+02 0.16005279898E+02
 0.19626228326E+02 0.23278012705E+02 0.26794234857E+02 0.30095516577E+02 0.33169709650E+02
 0.36030568877E+02 0.38674377747E+02 0.41047928944E+02 0.43036055145E+02 0.44472084547E+02
 0.45232321262E+02 0.44976089306E+02 0.43780992833E+02 0.41633282482E+02 0.38642704566E+02
 0.35023452751E+02 0.31048380723E+02 0.26991908159E+02 0.23081200027E+02 0.19469986132E+02
 0.16238213106E+02 0.13410238874E+02 0.10979341750E+02 0.89276040180E+01 0.72355523233E+01
 0.58822760201E+01 0.48412008830E+01 0.40773378164E+01 0.35489777709E+01 0.32130568263E+01
 0.30314222063E+01 0.29754971988E+01 0.30280759320E+01 0.31821097362E+01 0.34373434394E+01
 0.37965158437E+01 0.42629132694E+01 0.48399736491E+01 0.55321421880E+01 0.62147804918E+01
 0.69846738059E+01 0.77784989735E+01 0.85644643284E+01 0.92961700103E+01 0.99081228761E+01
 0.10315864989E+02 0.10424151329E+02 0.10145668000E+02 0.94300282397E+01 0.82957822155E+01
 0.68501830349E+01 0.52789332246E+01 0.38024468910E+01 0.26230745217E+01 0.18956755910E+01
 0.17242089210E+01 0.38843554579E+01 0.45626530725E+01 0.57672014209E+01 0.74790033338E+01
 0.97091641571E+01 0.12471291307E+02 0.15728859665E+02 0.19378253609E+02 0.23278012705E+02
 0.27303953129E+02 0.31387303374E+02 0.35520791340E+02 0.39730803556E+02 0.44028952609E+02
 0.48361212591E+02 0.52571039207E+02 0.56390060098E+02 0.59589058030E+02 0.61440247399E+02
 0.61900539392E+02 0.60739573772E+02 0.57926665865E+02 0.53653457833E+02 0.48301404273E+02
 0.42359302374E+02 0.36317091657E+02 0.30572845468E+02 0.25382078541E+02 0.20857043551E+02
 0.17002576211E+02 0.13765343368E+02 0.11076046494E+02 0.88734802344E+01 0.71096103659E+01
 0.57426043382E+01 0.47277517139E+01 0.40136613432E+01 0.35453380860E+01 0.32710544858E+01
 0.31488832470E+01 0.31503111162E+01 0.32601926884E+01 0.34735750614E+01 0.37909833511E+01
 0.42143688340E+01 0.47452810100E+01 0.53851240453E+01 0.61360279905E+01 0.67980886331E+01
 0.75658755724E+01 0.83341328117E+01 0.90668260842E+01 0.97147733929E+01 0.10215054710E+02
 0.10496042553E+02 0.10488902787E+02 0.10145668000E+02 0.94589090878E+01 0.84755418386E+01
 0.72990549233E+01 0.60747010556E+01 0.49690638825E+01 0.41477750935E+01 0.37549042382E+01
 0.64903998552E+01 0.71122826239E+01 0.82751415713E+01 0.10011008925E+02 0.12335290037E+02
 0.15236556094E+02 0.18665339435E+02 0.22542905841E+02 0.26794234857E+02 0.31387303374E+02
 0.36353290432E+02 0.41773452206E+02 0.47730999210E+02 0.54241251860E+02 0.61180074515E+02
 0.68235677821E+02 0.74905302642E+02 0.80613150339E+02 0.84470160136E+02 0.86121672439E+02
 0.85119281107E+02 0.81386433923E+02 0.75266168398E+02 0.67316969213E+02 0.58383399275E+02
 0.49302786595E+02 0.40760227391E+02 0.33188647596E+02 0.26760562085E+02 0.21450322638E+02
 0.17124101506E+02 0.13619603276E+02 0.10795398265E+02 0.85471644424E+01 0.67999171453E+01
 0.54909073175E+01 0.45565436139E+01 0.39294897957E+01 0.35439757481E+01 0.33435597610E+01
 0.32866850691E+01 0.33481343279E+01 0.35164556644E+01 0.37887321345E+01 0.41650882235E+01
 0.46452516644E+01 0.52278601092E+01 0.59113147925E+01 0.65721017065E+01 0.73012675390E+01
 0.80353117399E+01 0.87455476516E+01 0.93950029192E+01 0.99377291905E+01 0.10321530109E+02
 0.10496042553E+02 0.10424151329E+02 0.10094569873E+02 0.95313629408E+01 0.87972600587E+01
 0.79889184606E+01 0.72264391563E+01 0.66407658543E+01 0.63594640272E+01 0.86020296991E+01
 0.92630173732E+01 0.10434015159E+02 0.12185312587E+02 0.14557893448E+02 0.17557560657E+02
 0.21159685006E+02 0.25335901314E+02 0.30095516577E+02 0.35520791340E+02 0.41773452206E+02
 0.49057750898E+02 0.57540352573E+02 0.67241834076E+02 0.77930081741E+02 0.89030807339E+02
 0.99968092329E+02 0.10946148281E+03 0.11661102552E+03 0.12028047463E+03 0.11966916993E+03
 0.11459170040E+03 0.10558283468E+03 0.93753278689E+02 0.80471672116E+02 0.67053489539E+02
 0.54454737211E+02 0.43431630120E+02 0.34274216865E+02 0.26923962543E+02 0.21126865217E+02
 0.16573972077E+02 0.12991976803E+02 0.10179057863E+02 0.79994332736E+01 0.63574337624E+01
 0.51715072460E+01 0.43607821788E+01 0.38453867070E+01 0.35538960475E+01 0.34305940038E+01
 0.34386613258E+01 0.35585513659E+01 0.37826415569E+01 0.41085891607E+01 0.45342793119E+01
 0.50559210599E+01 0.56685944823E+01 0.63673790986E+01 0.69841358725E+01 0.76708265333E+01
 0.83403255770E+01 0.89642698397E+01 0.95091080059E+01 0.99377291905E+01 0.10215054710E+02
 0.10315864989E+02 0.10232535226E+02 0.99812139890E+01 0.96035829008E+01 0.91645413294E+01
 0.87469137539E+01 0.84455090844E+01 0.83627407357E+01 0.98651110304E+01 0.10614177001E+02
 0.11849704434E+02 0.13666496302E+02 0.16130786751E+02 0.19276004743E+02 0.23120964549E+02
 0.27711204367E+02 0.33169709650E+02 0.39730803556E+02 0.47730999210E+02 0.57540352573E+02
 0.69432227075E+02 0.83412591696E+02 0.99095710404E+02 0.11613514520E+03 0.13311753921E+03
 0.14876643048E+03 0.16108317800E+03 0.16807151446E+03 0.16826169646E+03 0.16122800905E+03
 0.14783352068E+03 0.13000686093E+03 0.11013705432E+03 0.90386347642E+02 0.72275492380E+02
 0.56551058765E+02 0.43668900986E+02 0.33562980365E+02 0.25824998761E+02 0.19939422583E+02
 0.15439767949E+02 0.11976077832E+02 0.93158882656E+01 0.73093271155E+01 0.58471894502E+01
 0.48323391624E+01 0.41707690727E+01 0.37762432306E+01 0.35784801360E+01 0.35281208049E+01
 0.35963221124E+01 0.37696424730E+01 0.40425945385E+01 0.44111264023E+01 0.48693745540E+01
 0.54096410339E+01 0.60237679382E+01 0.67041102555E+01 0.72503086179E+01 0.78663444970E+01
 0.84460140956E+01 0.89642698397E+01 0.93950029192E+01 0.97147733929E+01 0.99081228761E+01
 0.99727250243E+01 0.99224606144E+01 0.97877889353E+01 0.96138149982E+01 0.94580596560E+01
 0.93901627265E+01 0.94932579662E+01 0.10364682228E+02 0.11217700366E+02 0.12550355009E+02
 0.14473285406E+02 0.17072815058E+02 0.20413933518E+02 0.24571616964E+02 0.29687516027E+02
 0.36030568877E+02 0.44028952609E+02 0.54241251860E+02 0.67241834076E+02 0.83412591696E+02
 0.10275527482E+03 0.12542213420E+03 0.15035385243E+03 0.17632803961E+03 0.20086030559E+03
 0.22079724537E+03 0.23288498610E+03 0.23457820997E+03 0.22493180833E+03 0.20519548129E+03
 0.17856357576E+03 0.14905011834E+03 0.12020684433E+03 0.94391293107E+02 0.72640002663E+02
 0.55014147566E+02 0.41392634923E+02 0.31206153162E+02 0.23680405802E+02 0.18093581511E+02
 0.13893751207E+02 0.10712090819E+02 0.83193484023E+01 0.65658054418E+01 0.53336097827E+01
 0.45142704788E+01 0.40074011775E+01 0.37284688251E+01 0.36153076389E+01 0.36290912105E+01
 0.37497406881E+01 0.39680248302E+01 0.42778242782E+01 0.46715426610E+01 0.51393172883E+01
 0.56704130791E+01 0.62546942621E+01 0.68829577443E+01 0.73422904121E+01 0.78663444970E+01
 0.83403255770E+01 0.87455476516E+01 0.90668260842E+01 0.92961700103E+01 0.94358372613E+01
 0.94995829917E+01 0.95118512013E+01 0.95060821342E+01 0.95245898151E+01 0.96219521707E+01
 0.98705475262E+01 0.10313058090E+02 0.11264807933E+02 0.12701706140E+02 0.14744823442E+02
 0.17498137591E+02 0.21061197493E+02 0.25575817471E+02 0.31299074055E+02 0.38674377747E+02
 0.48361212591E+02 0.61180074515E+02 0.77930081741E+02 0.99095710404E+02 0.12542213420E+03
 0.15668793942E+03 0.19233843740E+03 0.23007908568E+03 0.26615810500E+03 0.29596435316E+03
 0.31493877554E+03 0.31929163893E+03 0.30697279492E+03 0.27915393040E+03 0.24061607645E+03
 0.19791319223E+03 0.15679246504E+03 0.12078455178E+03 0.91253118910E+02 0.68012906165E+02
 0.50227334476E+02 0.37141871219E+02 0.27699917211E+02 0.20876095619E+02 0.15869657296E+02
 0.12139145469E+02 0.93515650495E+01 0.73030630526E+01 0.58496277290E+01 0.48675715427E+01
 0.42433315789E+01 0.38790756274E+01 0.37002366993E+01 0.36578895898E+01 0.37248947654E+01
 0.38878595254E+01 0.41384818295E+01 0.44677325736E+01 0.48641964136E+01 0.53152826541E+01
 0.58090114986E+01 0.63348097094E+01 0.68829577443E+01 0.72503086179E+01 0.76708265333E+01
 0.80353117399E+01 0.83341328117E+01 0.85644643284E+01 0.87320387865E+01 0.88511740414E+01
 0.89431839181E+01 0.90348804865E+01 0.91601661244E+01 0.93657248104E+01 0.97189076168E+01
 0.99139890735E+01 0.10947393062E+02 0.12476774311E+02 0.14631116769E+02 0.17531273556E+02
 0.21314186205E+02 0.26195907312E+02 0.32561539349E+02 0.41047928944E+02 0.52571039207E+02
 0.68235677821E+02 0.89030807339E+02 0.11613514520E+03 0.15035385243E+03 0.19233843740E+03
 0.24077958641E+03 0.29190495934E+03 0.33975304102E+03 0.37835076552E+03 0.40372563215E+03
 0.41252111527E+03 0.40036364851E+03 0.36566385577E+03 0.31385857292E+03 0.25512723111E+03
 0.19883583343E+03 0.15042907665E+03 0.11162697620E+03 0.81872787738E+02 0.59599717873E+02
 0.43347048744E+02 0.31818949638E+02 0.23669320699E+02 0.17821531107E+02 0.13537569712E+02
 0.10363174932E+02 0.80295511958E+01 0.63616852398E+01 0.52199895631E+01 0.44789182946E+01
 0.40287956894E+01 0.37836674726E+01 0.36849686368E+01 0.36985283177E+01 0.38066391825E+01
 0.39987711196E+01 0.42647128883E+01 0.45920414968E+01 0.49670099190E+01 0.53764751262E+01
 0.58090114986E+01 0.62546942621E+01 0.67041102555E+01 0.69841358725E+01 0.73012675390E+01
 0.75658755724E+01 0.77784989735E+01 0.79472216344E+01 0.80868550415E+01 0.82170148925E+01
 0.83608183853E+01 0.85476545789E+01 0.88204299010E+01 0.92446643840E+01 0.93199728999E+01
 0.10412378849E+02 0.12011372734E+02 0.14252620196E+02 0.17273612834E+02 0.21249381227E+02
 0.26471759677E+02 0.33455907560E+02 0.43036055145E+02 0.56390060098E+02 0.74905302642E+02
 0.99968092329E+02 0.13311753921E+03 0.17632803961E+03 0.23007908568E+03 0.29190495934E+03
 0.35453903074E+03 0.40710438563E+03 0.44264060134E+03 0.46547139444E+03 0.48116469358E+03
 0.48043412100E+03 0.44944147166E+03 0.38936004002E+03 0.31523075594E+03 0.24275599584E+03
 0.18089556322E+03 0.13216736725E+03 0.95573642526E+02 0.68762405103E+02 0.49376287863E+02
 0.35773925771E+02 0.26314155835E+02 0.19648689854E+02 0.14839930219E+02 0.11307512995E+02
 0.87134297325E+01 0.68493939955E+01 0.55599224890E+01 0.47089458178E+01 0.41767750791E+01
 0.38675933150E+01 0.37141954148E+01 0.36758804863E+01 0.37307896896E+01 0.38662366618E+01
 0.40710351004E+01 0.43321889311E+01 0.46354008656E+01 0.49670099190E+01 0.53152826541E+01
 0.56704130791E+01 0.60237679382E+01 0.63673790986E+01 0.65721017065E+01 0.67980886331E+01
 0.69846738059E+01 0.71412853594E+01 0.72828894006E+01 0.74278059212E+01 0.75970192874E+01
 0.78172944562E+01 0.81297695526E+01 0.85992760191E+01 0.86306318099E+01 0.97576873083E+01
 0.11398099562E+02 0.13693284951E+02 0.16796173773E+02 0.20917030866E+02 0.26416892304E+02
 0.33929921694E+02 0.44472084547E+02 0.59589058030E+02 0.80613150339E+02 0.10946148281E+03
 0.14876643048E+03 0.20086030559E+03 0.26615810500E+03 0.33975304102E+03 0.40710438563E+03
 0.44590028554E+03 0.44769456563E+03 0.44443424175E+03 0.47012715174E+03 0.50402917507E+03
 0.50276126624E+03 0.45089570399E+03 0.36853855271E+03 0.28257703618E+03 0.20845072955E+03
 0.15056466072E+03 0.10768799715E+03 0.76789646949E+02 0.54674250878E+02 0.39241696856E+02
 0.28623102682E+02 0.21239164027E+02 0.15975735263E+02 0.12138065507E+02 0.93238735809E+01
 0.72935216480E+01 0.58770643532E+01 0.49297756481E+01 0.43240768991E+01 0.39562278906E+01
 0.37518685546E+01 0.36647233827E+01 0.36692743772E+01 0.37508972958E+01 0.38976142068E+01
 0.40961701134E+01 0.43321889311E+01 0.45920414968E+01 0.48641964136E+01 0.51393172883E+01
 0.54096410339E+01 0.56685944823E+01 0.59113147925E+01 0.61360279905E+01 0.62147804918E+01
 0.63531668084E+01 0.64874385179E+01 0.66347277782E+01 0.68142240534E+01 0.70509979292E+01
 0.73849101147E+01 0.78800737300E+01 0.79050447494E+01 0.90428389449E+01 0.10694773175E+02
 0.13006774827E+02 0.16144220778E+02 0.20345593719E+02 0.26026210513E+02 0.34018507200E+02
 0.45232321262E+02 0.61440247399E+02 0.84470160136E+02 0.11661102552E+03 0.16108317800E+03
 0.22079724537E+03 0.29596435316E+03 0.37835076552E+03 0.44264060134E+03 0.44769456563E+03
 0.38871451138E+03 0.39281242407E+03 0.43695852567E+03 0.45764457661E+03 0.50350537244E+03
 0.48228226657E+03 0.40425739061E+03 0.31135652375E+03 0.22880859549E+03 0.16423470161E+03
 0.11670894187E+03 0.82743355690E+02 0.58675887201E+02 0.41891891982E+02 0.30406869847E+02
 0.22483296133E+02 0.16878974453E+02 0.12813389000E+02 0.98347725000E+01 0.76788842512E+01
 0.61645820887E+01 0.51408813857E+01 0.44746923131E+01 0.40566285688E+01 0.38070778324E+01
 0.36755479706E+01 0.36336569044E+01 0.36652129189E+01 0.37576319879E+01 0.38976142068E+01
 0.40710351004E+01 0.42647128883E+01 0.44677325736E+01 0.46715426610E+01 0.48693745540E+01
 0.50559210599E+01 0.52278601092E+01 0.53851240453E+01 0.55321421880E+01 0.56780049053E+01
 0.57296062103E+01 0.58720182072E+01 0.60527897588E+01 0.62954223614E+01 0.66380890527E+01
 0.71436315784E+01 0.71765068462E+01 0.84164490252E+01 0.10044632430E+02 0.12323008292E+02
 0.15426157836E+02 0.19611794190E+02 0.25330194478E+02 0.33367539932E+02 0.44976089306E+02
 0.61900539392E+02 0.86121672439E+02 0.12028047463E+03 0.16807151446E+03 0.23288498610E+03
 0.31493877554E+03 0.40372563215E+03 0.46547139444E+03 0.44443424175E+03 0.39281242407E+03
 0.12390854053E+04 0.14364256838E+04 0.44968641327E+03 0.46633489248E+03 0.48166346430E+03
 0.41648623038E+03 0.32395487735E+03 0.23851041281E+03 0.17106253477E+03 0.12139275139E+03
 0.85969575691E+02 0.60928099129E+02 0.43453900298E+02 0.31509487151E+02 0.23291759616E+02
 0.17497588744E+02 0.13302539482E+02 0.10228205202E+02 0.79966596821E+01 0.64205311954E+01
 0.53455054008E+01 0.46355851110E+01 0.41782826326E+01 0.38909659899E+01 0.37206012278E+01
 0.36369784310E+01 0.36228424017E+01 0.36652129189E+01 0.37508972958E+01 0.38662366618E+01
 0.39987711196E+01 0.41384818295E+01 0.42778242782E+01 0.44111264023E+01 0.45342793119E+01
 0.46452516644E+01 0.47452810100E+01 0.48399736491E+01 0.49393040852E+01 0.50560572937E+01
 0.52037599026E+01 0.53967289744E+01 0.56547205593E+01 0.60119999131E+01 0.65272883414E+01
 0.64922574020E+01 0.75856946617E+01 0.91708838253E+01 0.11396774666E+02 0.14440054368E+02
 0.18561893940E+02 0.24217248171E+02 0.32200384294E+02 0.43780992833E+02 0.60739573772E+02
 0.85119281107E+02 0.11966916993E+03 0.16826169646E+03 0.23457820997E+03 0.31929163893E+03
 0.41252111527E+03 0.48116469358E+03 0.47012715174E+03 0.43695852567E+03 0.14364256838E+04
 0.16098056402E+04 0.41425379216E+03 0.43591331337E+03 0.46411506469E+03 0.40704854671E+03
 0.31910192532E+03 0.23617095718E+03 0.17007968555E+03 0.12112693700E+03 0.86066779528E+02
 0.61192171926E+02 0.43777370593E+02 0.31841576680E+02 0.23613123593E+02 0.17802604954E+02
 0.13589867554E+02 0.10496970107E+02 0.82455931469E+01 0.66481507434E+01 0.55502852106E+01
 0.48158475517E+01 0.43319558824E+01 0.40153844187E+01 0.38124147926E+01 0.36921876135E+01
 0.36369784310E+01 0.36336569044E+01 0.36692743772E+01 0.37307896896E+01 0.38066391825E+01
 0.38878595254E+01 0.39680248302E+01 0.40425945385E+01 0.41085891607E+01 0.41650882235E+01
 0.42143688340E+01 0.42629132694E+01 0.43213080889E+01 0.44026121482E+01 0.45202373458E+01
 0.46879246671E+01 0.49242510062E+01 0.52615177157E+01 0.57556334515E+01 0.57912346874E+01
 0.68339066728E+01 0.83495824703E+01 0.10484282006E+02 0.13410879275E+02 0.17380944997E+02
 0.22827770567E+02 0.30507058585E+02 0.41633282482E+02 0.57926665865E+02 0.81386433923E+02
 0.11459170040E+03 0.16122800905E+03 0.22493180833E+03 0.30697279492E+03 0.40036364851E+03
 0.48043412100E+03 0.50402917507E+03 0.45764457661E+03 0.44968641327E+03 0.41425379216E+03
 0.37853200575E+03 0.43796016800E+03 0.44112761583E+03 0.38093519949E+03 0.29900043711E+03
 0.22277824699E+03 0.16173029203E+03 0.11610585516E+03 0.83113718210E+02 0.59493561391E+02
 0.42865846598E+02 0.31400490641E+02 0.23444992380E+02 0.17793869012E+02 0.13677692634E+02
 0.10645596719E+02 0.84321320643E+01 0.68555730107E+01 0.57648272225E+01 0.50263347751E+01
 0.45295008822E+01 0.41929069624E+01 0.39639894538E+01 0.38124147926E+01 0.37206012278E+01
 0.36755479706E+01 0.36647233827E+01 0.36758804863E+01 0.36985283177E+01 0.37248947654E+01
 0.37497406881E+01 0.37696424730E+01 0.37826415569E+01 0.37887321345E+01 0.37909833511E+01
 0.37965158437E+01 0.38163703123E+01 0.38638484045E+01 0.39523105511E+01 0.40949244320E+01
 0.43087968522E+01 0.46234915980E+01 0.50907954465E+01 0.51702754208E+01 0.61459153096E+01
 0.75676482675E+01 0.95756818252E+01 0.12333988919E+02 0.16073699759E+02 0.21184294493E+02
 0.28342580379E+02 0.38642704566E+02 0.53653457833E+02 0.75266168398E+02 0.10558283468E+03
 0.14783352068E+03 0.20519548129E+03 0.27915393040E+03 0.36566385577E+03 0.44944147166E+03
 0.50276126624E+03 0.50350537244E+03 0.46633489248E+03 0.43591331337E+03 0.43796016800E+03
 0.44092099702E+03 0.40706948064E+03 0.34161741063E+03 0.26762899491E+03 0.20104784577E+03
 0.14761582907E+03 0.10722775585E+03 0.77628000575E+02 0.56106571802E+02 0.40872729797E+02
 0.30270142646E+02 0.22834560505E+02 0.17500325633E+02 0.13586245900E+02 0.10690228400E+02
 0.85705825569E+01 0.70565248329E+01 0.60031228920E+01 0.52818627786E+01 0.47868121836E+01
 0.44404423173E+01 0.41929069624E+01 0.40153844187E+01 0.38909659899E+01 0.38070778324E+01
 0.37518685546E+01 0.37141954148E+01 0.36849686368E+01 0.36578895898E+01 0.36290912105E+01
 0.35963221124E+01 0.35585513659E+01 0.35164556644E+01 0.34735750614E+01 0.34373434394E+01
 0.34190281270E+01 0.34321239686E+01 0.34900609503E+01 0.36055772664E+01 0.37942259592E+01
 0.40822978785E+01 0.45163779095E+01 0.46189363372E+01 0.55130451559E+01 0.68195685584E+01
 0.86704620746E+01 0.11217230093E+02 0.14663573448E+02 0.19340588028E+02 0.25818382651E+02
 0.35023452751E+02 0.48301404273E+02 0.67316969213E+02 0.93753278689E+02 0.13000686093E+03
 0.17856357576E+03 0.24061607645E+03 0.31385857292E+03 0.38936004002E+03 0.45089570399E+03
 0.48228226657E+03 0.48166346430E+03 0.46411506469E+03 0.44112761583E+03 0.40706948064E+03
 0.35560665546E+03 0.29272388591E+03 0.22968862564E+03 0.17445675402E+03 0.12992957771E+03
 0.95789757247E+02 0.70285296943E+02 0.51483753441E+02 0.38062346926E+02 0.28600903830E+02
 0.21868611423E+02 0.16975268831E+02 0.13351835081E+02 0.10658730658E+02 0.86848238716E+01
 0.72735215028E+01 0.62881057268E+01 0.56069686759E+01 0.51305982069E+01 0.47868121836E+01
 0.45295008822E+01 0.43319558824E+01 0.41782826326E+01 0.40566285688E+01 0.39562278906E+01
 0.38675933150E+01 0.37836674726E+01 0.37002366993E+01 0.36153076389E+01 0.35281208049E+01
 0.34386613258E+01 0.33481343279E+01 0.32601926884E+01 0.31821097362E+01 0.31249207690E+01
 0.31020152651E+01 0.31268398354E+01 0.32118328156E+01 0.33710821616E+01 0.36273802160E+01
 0.40213878655E+01 0.41320869796E+01 0.49328367803E+01 0.61072934716E+01 0.77772596620E+01
 0.10079913718E+02 0.13188994942E+02 0.17371781119E+02 0.23079708727E+02 0.31048380723E+02
 0.42359302374E+02 0.58383399275E+02 0.80471672116E+02 0.11013705432E+03 0.14905011834E+03
 0.19791319223E+03 0.25512723111E+03 0.31523075594E+03 0.36853855271E+03 0.40425739061E+03
 0.41648623038E+03 0.40704854671E+03 0.38093519949E+03 0.34161741063E+03 0.29272388591E+03
 0.24010594124E+03 0.18996293175E+03 0.14638682573E+03 0.11087815764E+03 0.83137152302E+02
 0.61945494615E+02 0.46154789361E+02 0.34750520365E+02 0.26577375977E+02 0.20657315660E+02
 0.16289229432E+02 0.13024984505E+02 0.10592115677E+02 0.88120362543E+01 0.75433487059E+01
 0.66584871704E+01 0.60437616248E+01 0.56069686759E+01 0.52818627786E+01 0.50263347751E+01
 0.48158475517E+01 0.46355851110E+01 0.44746923131E+01 0.43240768991E+01 0.41767750791E+01
 0.40287956894E+01 0.38790756274E+01 0.37284688251E+01 0.35784801360E+01 0.34305940038E+01
 0.32866850691E+01 0.31503111162E+01 0.30280759320E+01 0.29300902361E+01 0.28689528276E+01
 0.28576580618E+01 0.29081975785E+01 0.30332721162E+01 0.32522123722E+01 0.35994658497E+01
 0.37083114853E+01 0.44074279815E+01 0.54384777702E+01 0.69116868694E+01 0.89494408397E+01
 0.11696890920E+02 0.15360613381E+02 0.20276893167E+02 0.26991908159E+02 0.36317091657E+02
 0.49302786595E+02 0.67053489539E+02 0.90386347642E+02 0.12020684433E+03 0.15679246504E+03
 0.19883583343E+03 0.24275599584E+03 0.28257703618E+03 0.31135652375E+03 0.32395487735E+03
 0.31910192532E+03 0.29900043711E+03 0.26762899491E+03 0.22968862564E+03 0.18996293175E+03