   5   5   1   0
  0.3432000E+03  0.1100000E-08  0.1200000E-08  0.1300000E-08  0.5000000E-15
  1.000000000000000E-004
  CAR
 CeO2
      2.44789372    -17.85749859 2000     -9.10149619      1.00000000
    -17.857  0.0000E+00  0.0000E+00  0.0000E+00  0.0000E+00
    -17.847  0.0000E+00  0.0000E+00  0.0000E+00  0.0000E+00
    -17.837  0.0000E+00  0.0000E+00  0.0000E+00  0.0000E+00
    -17.827  0.0000E+00  0.0000E+00  0.0000E+00  0.0000E+00
    -17.817  0.0000E+00  0.0000E+00  0.0000E+00  0.0000E+00
    -17.807  0.0000E+00  0.0000E+00  0.0000E+00  0.0000E+00
    -17.797  0.0000E+00  0.0000E+00  0.0000E+00  0.0000E+00
    -17.786  0.0000E+00  0.0000E+00  0.0000E+00  0.0000E+00
    -17.776  0.0000E+00  0.0000E+00  0.0000E+00  0.0000E+00
    -17.766  0.0000E+00  0.0000E+00  0.0000E+00  0.0000E+00
    -17.756  0.0000E+00  0.0000E+00  0.0000E+00  0.0000E+00
    -17.746  0.0000E+00  0.0000E+00  0.0000E+00  0.0000E+00
    -17.736  0.0000E+00  0.0000E+00  0.0000E+00  0.0000E+00
    -17.725  0.0000E+00  0.0000E+00  0.0000E+00  0.0000E+00
    -17.715  0.0000E+00  0.0000E+00  0.0000E+00  0.0000E+00
    -17.705  0.0000E+00  0.0000E+00  0.0000E+00  0.0000E+00
    -17.695  0.0000E+00  0.0000E+00  0.0000E+00  0.0000E+00
    -17.685  0.0000E+00  0.0000E+00  0.0000E+00  0.0000E+00
    -17.675  0.0000E+00  0.0000E+00  0.0000E+00  0.0000E+00
    -17.665  0.0000E+00  0.0000E+00  0.0000E+00  0.0000E+00
    -17.654  0.0000E+00  0.0000E+00  0.0000E+00  0.0000E+00
    -17.644  0.0000E+00  0.0000E+00  0.0000E+00  0.0000E+00
    -17.634  0.0000E+00  0.0000E+00  0.0000E+00  0.0000E+00
    -17.624  0.0000E+00  0.0000E+00  0.0000E+00  0.0000E+00
    -17.614  0.0000E+00  0.0000E+00  0.0000E+00  0.0000E+00
    -17.604  0.0000E+00  0.0000E+00  0.0000E+00  0.0000E+00
    -17.593  0.0000E+00  0.0000E+00  0.0000E+00  0.0000E+00
    -17.583  0.0000E+00  0.0000E+00  0.0000E+00  0.0000E+00
    -17.573  0.0000E+00  0.0000E+00  0.0000E+00  0.0000E+00
    -17.563  0.0000E+00  0.0000E+00  0.0000E+00  0.0000E+00
    -17.553  0.0000E+00  0.0000E+00  0.0000E+00  0.0000E+00
    -17.543  0.0000E+00  0.0000E+00  0.0000E+00  0.0000E+00
    -17.532  0.0000E+00  0.0000E+00  0.0000E+00  0.0000E+00
    -17.522  0.0000E+00  0.0000E+00  0.0000E+00  0.0000E+00
    -17.512  0.0000E+00  0.0000E+00  0.0000E+00  0.0000E+00
    -17.502  0.0000E+00  0.0000E+00  0.0000E+00  0.0000E+00
    -17.492  0.0000E+00  0.0000E+00  0.0000E+00  0.0000E+00
    -17.482  0.0000E+00  0.0000E+00  0.0000E+00  0.0000E+00
    -17.472  0.0000E+00  0.0000E+00  0.0000E+00  0.0000E+00
    -17.461  0.0000E+00  0.0000E+00  0.0000E+00  0.0000E+00
    -17.451  0.0000E+00  0.0000E+00  0.0000E+00  0.0000E+00
    -17.441  0.0000E+00  0.0000E+00  0.0000E+00  0.0000E+00
    -17.431  0.0000E+00  0.0000E+00  0.0000E+00  0.0000E+00
    -17.421  0.0000E+00  0.0000E+00  0.0000E+00  0.0000E+00
    -17.411  0.0000E+00  0.0000E+00  0.0000E+00  0.0000E+00
    -17.400  0.0000E+00  0.0000E+00  0.0000E+00  0.0000E+00
    -17.390  0.0000E+00  0.0000E+00  0.0000E+00  0.0000E+00
    -17.380  0.0000E+00  0.0000E+00  0.0000E+00  0.0000E+00
    -17.370  0.0000E+00  0.0000E+00  0.0000E+00  0.0000E+00
    -17.360  0.0000E+00  0.0000E+00  0.0000E+00  0.0000E+00
    -17.350  0.0000E+00  0.0000E+00  0.0000E+00  0.0000E+00
    -17.339  0.0000E+00  0.0000E+00  0.0000E+00  0.0000E+00
    -17.329  0.0000E+00  0.0000E+00  0.0000E+00  0.0000E+00
    -17.319  0.0000E+00  0.0000E+00  0.0000E+00  0.0000E+00
    -17.309  0.0000E+00  0.0000E+00  0.0000E+00  0.0000E+00
    -17.299  0.0000E+00  0.0000E+00  0.0000E+00  0.0000E+00
    -17.289  0.0000E+00  0.0000E+00  0.0000E+00  0.0000E+00
    -17.279  0.0000E+00  0.0000E+00  0.0000E+00  0.0000E+00
    -17.268  0.0000E+00  0.0000E+00  0.0000E+00  0.0000E+00
    -17.258  0.0000E+00  0.0000E+00  0.0000E+00  0.0000E+00
    -17.248  0.0000E+00  0.0000E+00  0.0000E+00  0.0000E+00
    -17.238  0.0000E+00  0.0000E+00  0.0000E+00  0.0000E+00
    -17.228  0.5465E-14  0.5465E-14  0.5551E-16  0.5551E-16
    -17.218  0.5465E-13  0.5465E-13  0.6106E-15  0.6106E-15
    -17.207  0.5192E-12  0.5137E-12  0.5884E-14  0.5829E-14
    -17.197  0.4738E-11  0.4667E-11  0.5401E-13  0.5324E-13
    -17.187  0.3948E-10  0.3894E-10  0.4551E-12  0.4488E-12
    -17.177  0.3034E-09  0.2994E-09  0.3537E-11  0.3490E-11
    -17.167  0.2148E-08  0.2121E-08  0.2535E-10  0.2503E-10
    -17.157  0.1401E-07  0.1384E-07  0.1676E-09  0.1656E-09
    -17.146  0.8413E-07  0.8316E-07  0.1022E-08  0.1010E-08
    -17.136  0.4656E-06  0.4605E-06  0.5752E-08  0.5688E-08
    -17.126  0.2374E-05  0.2349E-05  0.2986E-07  0.2955E-07
    -17.116  0.1115E-04  0.1104E-04  0.1431E-06  0.1417E-06
    -17.106  0.4823E-04  0.4778E-04  0.6330E-06  0.6270E-06
    -17.096  0.1922E-03  0.1905E-03  0.2586E-05  0.2562E-05
    -17.086  0.7059E-03  0.7000E-03  0.9756E-05  0.9673E-05
    -17.075  0.2388E-02  0.2369E-02  0.3401E-04  0.3374E-04
    -17.065  0.7442E-02  0.7388E-02  0.1096E-03  0.1088E-03
    -17.055  0.2137E-01  0.2122E-01  0.3266E-03  0.3243E-03
    -17.045  0.5651E-01  0.5616E-01  0.9006E-03  0.8948E-03
    -17.035  0.1377E+00  0.1369E+00  0.2299E-02  0.2286E-02
    -17.025  0.3091E+00  0.3076E+00  0.5439E-02  0.5410E-02
    -17.014  0.6393E+00  0.6364E+00  0.1193E-01  0.1187E-01
    -17.004  0.1218E+01  0.1213E+01  0.2431E-01  0.2420E-01
    -16.994  0.2138E+01  0.2131E+01  0.4603E-01  0.4584E-01
    -16.984  0.3458E+01  0.3448E+01  0.8115E-01  0.8087E-01
    -16.974  0.5152E+01  0.5140E+01  0.1335E+00  0.1331E+00
    -16.964  0.7072E+01  0.7059E+01  0.2053E+00  0.2048E+00
    -16.953  0.8944E+01  0.8932E+01  0.2962E+00  0.2955E+00
    -16.943  0.1042E+02  0.1041E+02  0.4020E+00  0.4013E+00
    -16.933  0.1118E+02  0.1118E+02  0.5156E+00  0.5149E+00
    -16.923  0.1106E+02  0.1106E+02  0.6280E+00  0.6272E+00
    -16.913  0.1008E+02  0.1009E+02  0.7303E+00  0.7297E+00
    -16.903  0.8457E+01  0.8470E+01  0.8162E+00  0.8157E+00
    -16.893  0.6540E+01  0.6553E+01  0.8827E+00  0.8823E+00
    -16.882  0.4659E+01  0.4671E+01  0.9300E+00  0.9297E+00
    -16.872  0.3058E+01  0.3067E+01  0.9611E+00  0.9609E+00
    -16.862  0.1849E+01  0.1856E+01  0.9798E+00  0.9797E+00
    -16.852  0.1030E+01  0.1034E+01  0.9903E+00  0.9902E+00
    -16.842  0.5287E+00  0.5312E+00  0.9957E+00  0.9956E+00
    -16.832  0.2500E+00  0.2513E+00  0.9982E+00  0.9982E+00
    -16.821  0.1089E+00  0.1095E+00  0.9993E+00  0.9993E+00
    -16.811  0.4370E-01  0.4397E-01  0.9998E+00  0.9998E+00
    -16.801  0.1616E-01  0.1627E-01  0.9999E+00  0.9999E+00
    -16.791  0.5503E-02  0.5544E-02  0.1000E+01  0.1000E+01
    -16.781  0.1727E-02  0.1740E-02  0.1000E+01  0.1000E+01
    -16.771  0.4991E-03  0.5034E-03  0.1000E+01  0.1000E+01
    -16.760  0.1329E-03  0.1341E-03  0.1000E+01  0.1000E+01
    -16.750  0.3261E-04  0.3293E-04  0.1000E+01  0.1000E+01
    -16.740  0.7371E-05  0.7446E-05  0.1000E+01  0.1000E+01
    -16.730  0.1535E-05  0.1551E-05  0.1000E+01  0.1000E+01
    -16.720  0.2944E-06  0.2977E-06  0.1000E+01  0.1000E+01
    -16.710  0.5202E-07  0.5263E-07  0.1000E+01  0.1000E+01
    -16.700  0.8467E-08  0.8572E-08  0.1000E+01  0.1000E+01
    -16.689  0.1270E-08  0.1286E-08  0.1000E+01  0.1000E+01
    -16.679  0.1754E-09  0.1778E-09  0.1000E+01  0.1000E+01
    -16.669  0.2232E-10  0.2264E-10  0.1000E+01  0.1000E+01
    -16.659  0.2623E-11  0.2656E-11  0.1000E+01  0.1000E+01
    -16.649  0.2732E-12  0.2842E-12  0.1000E+01  0.1000E+01
    -16.639  0.3279E-13  0.3279E-13  0.1000E+01  0.1000E+01
    -16.628  0.0000E+00  0.0000E+00  0.1000E+01  0.1000E+01
    -16.618  0.0000E+00  0.0000E+00  0.1000E+01  0.1000E+01
    -16.608  0.0000E+00  0.0000E+00  0.1000E+01  0.1000E+01
    -16.598  0.0000E+00  0.0000E+00  0.1000E+01  0.1000E+01
    -16.588  0.0000E+00  0.0000E+00  0.1000E+01  0.1000E+01
    -16.578  0.0000E+00  0.0000E+00  0.1000E+01  0.1000E+01
    -16.567  0.0000E+00  0.0000E+00  0.1000E+01  0.1000E+01
    -16.557  0.0000E+00  0.0000E+00  0.1000E+01  0.1000E+01
    -16.547  0.0000E+00  0.0000E+00  0.1000E+01  0.1000E+01
    -16.537  0.0000E+00  0.0000E+00  0.1000E+01  0.1000E+01
    -16.527  0.0000E+00  0.0000E+00  0.1000E+01  0.1000E+01
    -16.517  0.0000E+00  0.0000E+00  0.1000E+01  0.1000E+01
    -16.507  0.0000E+00  0.0000E+00  0.1000E+01  0.1000E+01
    -16.496  0.0000E+00  0.0000E+00  0.1000E+01  0.1000E+01
    -16.486  0.0000E+00  0.0000E+00  0.1000E+01  0.1000E+01
    -16.476  0.0000E+00  0.0000E+00  0.1000E+01  0.1000E+01
    -16.466  0.0000E+00  0.0000E+00  0.1000E+01  0.1000E+01
    -16.456  0.0000E+00  0.0000E+00  0.1000E+01  0.1000E+01
    -16.446  0.0000E+00  0.0000E+00  0.1000E+01  0.1000E+01
    -16.435  0.0000E+00  0.0000E+00  0.1000E+01  0.1000E+01
    -16.425  0.0000E+00  0.0000E+00  0.1000E+01  0.1000E+01
    -16.415  0.0000E+00  0.0000E+00  0.1000E+01  0.1000E+01
    -16.405  0.0000E+00  0.0000E+00  0.1000E+01  0.1000E+01
    -16.395  0.0000E+00  0.0000E+00  0.1000E+01  0.1000E+01
    -16.385  0.0000E+00  0.0000E+00  0.1000E+01  0.1000E+01
    -16.374  0.0000E+00  0.0000E+00  0.1000E+01  0.1000E+01
    -16.364  0.0000E+00  0.0000E+00  0.1000E+01  0.1000E+01
    -16.354  0.0000E+00  0.0000E+00  0.1000E+01  0.1000E+01
    -16.344  0.0000E+00  0.0000E+00  0.1000E+01  0.1000E+01
    -16.334  0.0000E+00  0.0000E+00  0.1000E+01  0.1000E+01
    -16.324  0.0000E+00  0.0000E+00  0.1000E+01  0.1000E+01
    -16.314  0.0000E+00  0.0000E+00  0.1000E+01  0.1000E+01
    -16.303  0.0000E+00  0.0000E+00  0.1000E+01  0.1000E+01
    -16.293  0.0000E+00  0.0000E+00  0.1000E+01  0.1000E+01
    -16.283  0.0000E+00  0.0000E+00  0.1000E+01  0.1000E+01
    -16.273  0.0000E+00  0.0000E+00  0.1000E+01  0.1000E+01
    -16.263  0.0000E+00  0.0000E+00  0.1000E+01  0.1000E+01
    -16.253  0.0000E+00  0.0000E+00  0.1000E+01  0.1000E+01
    -16.242  0.0000E+00  0.0000E+00  0.1000E+01  0.1000E+01
    -16.232  0.0000E+00  0.0000E+00  0.1000E+01  0.1000E+01
    -16.222  0.0000E+00  0.0000E+00  0.1000E+01  0.1000E+01
    -16.212  0.0000E+00  0.0000E+00  0.1000E+01  0.1000E+01
    -16.202  0.0000E+00  0.0000E+00  0.1000E+01  0.1000E+01
    -16.192  0.0000E+00  0.0000E+00  0.1000E+01  0.1000E+01
    -16.181  0.0000E+00  0.0000E+00  0.1000E+01  0.1000E+01
    -16.171  0.0000E+00  0.0000E+00  0.1000E+01  0.1000E+01
    -16.161  0.0000E+00  0.0000E+00  0.1000E+01  0.1000E+01
    -16.151  0.0000E+00  0.0000E+00  0.1000E+01  0.1000E+01
    -16.141  0.0000E+00  0.0000E+00  0.1000E+01  0.1000E+01
    -16.131  0.0000E+00  0.0000E+00  0.1000E+01  0.1000E+01
    -16.121  0.0000E+00  0.0000E+00  0.1000E+01  0.1000E+01
    -16.110  0.0000E+00  0.0000E+00  0.1000E+01  0.1000E+01
    -16.100  0.0000E+00  0.0000E+00  0.1000E+01  0.1000E+01
    -16.090  0.0000E+00  0.0000E+00  0.1000E+01  0.1000E+01
    -16.080  0.0000E+00  0.0000E+00  0.1000E+01  0.1000E+01
    -16.070  0.0000E+00  0.0000E+00  0.1000E+01  0.1000E+01
    -16.060  0.0000E+00  0.0000E+00  0.1000E+01  0.1000E+01
    -16.049  0.0000E+00  0.0000E+00  0.1000E+01  0.1000E+01
    -16.039  0.0000E+00  0.0000E+00  0.1000E+01  0.1000E+01
    -16.029  0.0000E+00  0.0000E+00  0.1000E+01  0.1000E+01
    -16.019  0.0000E+00  0.0000E+00  0.1000E+01  0.1000E+01
    -16.009  0.0000E+00  0.0000E+00  0.1000E+01  0.1000E+01
    -15.999  0.0000E+00  0.0000E+00  0.1000E+01  0.1000E+01
    -15.988  0.0000E+00  0.0000E+00  0.1000E+01  0.1000E+01
    -15.978  0.0000E+00  0.0000E+00  0.1000E+01  0.1000E+01
    -15.968  0.0000E+00  0.0000E+00  0.1000E+01  0.1000E+01
    -15.958  0.0000E+00  0.0000E+00  0.1000E+01  0.1000E+01
    -15.948  0.0000E+00  0.0000E+00  0.1000E+01  0.1000E+01
    -15.938  0.0000E+00  0.0000E+00  0.1000E+01  0.1000E+01
    -15.928  0.0000E+00  0.0000E+00  0.1000E+01  0.1000E+01
    -15.917  0.0000E+00  0.0000E+00  0.1000E+01  0.1000E+01
    -15.907  0.0000E+00  0.0000E+00  0.1000E+01  0.1000E+01
    -15.897  0.0000E+00  0.0000E+00  0.1000E+01  0.1000E+01
    -15.887  0.0000E+00  0.0000E+00  0.1000E+01  0.1000E+01
    -15.877  0.0000E+00  0.0000E+00  0.1000E+01  0.1000E+01
    -15.867  0.0000E+00  0.0000E+00  0.1000E+01  0.1000E+01
    -15.856  0.0000E+00  0.0000E+00  0.1000E+01  0.1000E+01
    -15.846  0.0000E+00  0.0000E+00  0.1000E+01  0.1000E+01
    -15.836  0.0000E+00  0.0000E+00  0.1000E+01  0.1000E+01
    -15.826  0.0000E+00  0.0000E+00  0.1000E+01  0.1000E+01
    -15.816  0.0000E+00  0.0000E+00  0.1000E+01  0.1000E+01
    -15.806  0.0000E+00  0.0000E+00  0.1000E+01  0.1000E+01
    -15.795  0.0000E+00  0.0000E+00  0.1000E+01  0.1000E+01
    -15.785  0.0000E+00  0.0000E+00  0.1000E+01  0.1000E+01
    -15.775  0.0000E+00  0.0000E+00  0.1000E+01  0.1000E+01
    -15.765  0.0000E+00  0.0000E+00  0.1000E+01  0.1000E+01
    -15.755  0.0000E+00  0.0000E+00  0.1000E+01  0.1000E+01
    -15.745  0.0000E+00  0.0000E+00  0.1000E+01  0.1000E+01
    -15.735  0.0000E+00  0.0000E+00  0.1000E+01  0.1000E+01
    -15.724  0.0000E+00  0.0000E+00  0.1000E+01  0.1000E+01
    -15.714  0.0000E+00  0.0000E+00  0.1000E+01  0.1000E+01
    -15.704  0.0000E+00  0.0000E+00  0.1000E+01  0.1000E+01
    -15.694  0.0000E+00  0.0000E+00  0.1000E+01  0.1000E+01
    -15.684  0.0000E+00  0.0000E+00  0.1000E+01  0.1000E+01
    -15.674  0.0000E+00  0.0000E+00  0.1000E+01  0.1000E+01
    -15.663  0.0000E+00  0.0000E+00  0.1000E+01  0.1000E+01
    -15.653  0.0000E+00  0.0000E+00  0.1000E+01  0.1000E+01
    -15.643  0.0000E+00  0.0000E+00  0.1000E+01  0.1000E+01
    -15.633  0.0000E+00  0.0000E+00  0.1000E+01  0.1000E+01
    -15.623  0.0000E+00  0.0000E+00  0.1000E+01  0.1000E+01
    -15.613  0.0000E+00  0.0000E+00  0.1000E+01  0.1000E+01
    -15.602  0.0000E+00  0.0000E+00  0.1000E+01  0.1000E+01
    -15.592  0.0000E+00  0.0000E+00  0.1000E+01  0.1000E+01
    -15.582  0.0000E+00  0.0000E+00  0.1000E+01  0.1000E+01
    -15.572  0.0000E+00  0.0000E+00  0.1000E+01  0.1000E+01
    -15.562  0.0000E+00  0.0000E+00  0.1000E+01  0.1000E+01
    -15.552  0.0000E+00  0.0000E+00  0.1000E+01  0.1000E+01
    -15.542  0.0000E+00  0.0000E+00  0.1000E+01  0.1000E+01
    -15.531  0.0000E+00  0.0000E+00  0.1000E+01  0.1000E+01
    -15.521  0.0000E+00  0.0000E+00  0.1000E+01  0.1000E+01
    -15.511  0.0000E+00  0.0000E+00  0.1000E+01  0.1000E+01
    -15.501  0.0000E+00  0.0000E+00  0.1000E+01  0.1000E+01
    -15.491  0.0000E+00  0.0000E+00  0.1000E+01  0.1000E+01
    -15.481  0.0000E+00  0.0000E+00  0.1000E+01  0.1000E+01
    -15.470  0.0000E+00  0.0000E+00  0.1000E+01  0.1000E+01
    -15.460  0.0000E+00  0.0000E+00  0.1000E+01  0.1000E+01
    -15.450  0.0000E+00  0.0000E+00  0.1000E+01  0.1000E+01
    -15.440  0.0000E+00  0.0000E+00  0.1000E+01  0.1000E+01
    -15.430  0.0000E+00  0.0000E+00  0.1000E+01  0.1000E+01
    -15.420  0.0000E+00  0.0000E+00  0.1000E+01  0.1000E+01
    -15.409  0.0000E+00  0.0000E+00  0.1000E+01  0.1000E+01
    -15.399  0.0000E+00  0.0000E+00  0.1000E+01  0.1000E+01
    -15.389  0.0000E+00  0.0000E+00  0.1000E+01  0.1000E+01
    -15.379  0.0000E+00  0.0000E+00  0.1000E+01  0.1000E+01
    -15.369  0.0000E+00  0.0000E+00  0.1000E+01  0.1000E+01
    -15.359  0.0000E+00  0.0000E+00  0.1000E+01  0.1000E+01
    -15.349  0.0000E+00  0.0000E+00  0.1000E+01  0.1000E+01
    -15.338  0.0000E+00  0.0000E+00  0.1000E+01  0.1000E+01
    -15.328  0.0000E+00  0.0000E+00  0.1000E+01  0.1000E+01
    -15.318  0.0000E+00  0.0000E+00  0.1000E+01  0.1000E+01
    -15.308  0.0000E+00  0.0000E+00  0.1000E+01  0.1000E+01
    -15.298  0.0000E+00  0.0000E+00  0.1000E+01  0.1000E+01
    -15.288  0.0000E+00  0.0000E+00  0.1000E+01  0.1000E+01
    -15.277  0.0000E+00  0.0000E+00  0.1000E+01  0.1000E+01
    -15.267  0.0000E+00  0.0000E+00  0.1000E+01  0.1000E+01
    -15.257  0.0000E+00  0.0000E+00  0.1000E+01  0.1000E+01
    -15.247  0.0000E+00  0.0000E+00  0.1000E+01  0.1000E+01
    -15.237  0.0000E+00  0.0000E+00  0.1000E+01  0.1000E+01
    -15.227  0.0000E+00  0.0000E+00  0.1000E+01  0.1000E+01
    -15.216  0.0000E+00  0.0000E+00  0.1000E+01  0.1000E+01
    -15.206  0.0000E+00  0.0000E+00  0.1000E+01  0.1000E+01
    -15.196  0.0000E+00  0.0000E+00  0.1000E+01  0.1000E+01
    -15.186  0.0000E+00  0.0000E+00  0.1000E+01  0.1000E+01
    -15.176  0.0000E+00  0.0000E+00  0.1000E+01  0.1000E+01
    -15.166  0.0000E+00  0.0000E+00  0.1000E+01  0.1000E+01
    -15.156  0.0000E+00  0.0000E+00  0.1000E+01  0.1000E+01
    -15.145  0.0000E+00  0.0000E+00  0.1000E+01  0.1000E+01
    -15.135  0.0000E+00  0.0000E+00  0.1000E+01  0.1000E+01
    -15.125  0.0000E+00  0.0000E+00  0.1000E+01  0.1000E+01
    -15.115  0.0000E+00  0.0000E+00  0.1000E+01  0.1000E+01
    -15.105  0.0000E+00  0.0000E+00  0.1000E+01  0.1000E+01
    -15.095  0.0000E+00  0.0000E+00  0.1000E+01  0.1000E+01
    -15.084  0.0000E+00  0.0000E+00  0.1000E+01  0.1000E+01
    -15.074  0.0000E+00  0.0000E+00  0.1000E+01  0.1000E+01
    -15.064  0.0000E+00  0.0000E+00  0.1000E+01  0.1000E+01
    -15.054  0.0000E+00  0.0000E+00  0.1000E+01  0.1000E+01
    -15.044  0.0000E+00  0.0000E+00  0.1000E+01  0.1000E+01
    -15.034  0.0000E+00  0.0000E+00  0.1000E+01  0.1000E+01
    -15.023  0.0000E+00  0.0000E+00  0.1000E+01  0.1000E+01
    -15.013  0.0000E+00  0.0000E+00  0.1000E+01  0.1000E+01
    -15.003  0.0000E+00  0.0000E+00  0.1000E+01  0.1000E+01
    -14.993  0.0000E+00  0.0000E+00  0.1000E+01  0.1000E+01
    -14.983  0.0000E+00  0.0000E+00  0.1000E+01  0.1000E+01
    -14.973  0.0000E+00  0.0000E+00  0.1000E+01  0.1000E+01
    -14.963  0.0000E+00  0.0000E+00  0.1000E+01  0.1000E+01
    -14.952  0.0000E+00  0.0000E+00  0.1000E+01  0.1000E+01
    -14.942  0.0000E+00  0.0000E+00  0.1000E+01  0.1000E+01
    -14.932  0.0000E+00  0.0000E+00  0.1000E+01  0.1000E+01
    -14.922  0.0000E+00  0.0000E+00  0.1000E+01  0.1000E+01
    -14.912  0.0000E+00  0.0000E+00  0.1000E+01  0.1000E+01
    -14.902  0.0000E+00  0.0000E+00  0.1000E+01  0.1000E+01
    -14.891  0.0000E+00  0.0000E+00  0.1000E+01  0.1000E+01
    -14.881  0.0000E+00  0.0000E+00  0.1000E+01  0.1000E+01
    -14.871  0.0000E+00  0.0000E+00  0.1000E+01  0.1000E+01
    -14.861  0.0000E+00  0.0000E+00  0.1000E+01  0.1000E+01
    -14.851  0.0000E+00  0.0000E+00  0.1000E+01  0.1000E+01
    -14.841  0.0000E+00  0.0000E+00  0.1000E+01  0.1000E+01
    -14.830  0.0000E+00  0.0000E+00  0.1000E+01  0.1000E+01
    -14.820  0.0000E+00  0.0000E+00  0.1000E+01  0.1000E+01
    -14.810  0.0000E+00  0.0000E+00  0.1000E+01  0.1000E+01
    -14.800  0.0000E+00  0.0000E+00  0.1000E+01  0.1000E+01
    -14.790  0.0000E+00  0.0000E+00  0.1000E+01  0.1000E+01
    -14.780  0.0000E+00  0.0000E+00  0.1000E+01  0.1000E+01
    -14.770  0.0000E+00  0.0000E+00  0.1000E+01  0.1000E+01
    -14.759  0.0000E+00  0.0000E+00  0.1000E+01  0.1000E+01
    -14.749  0.0000E+00  0.0000E+00  0.1000E+01  0.1000E+01
    -14.739  0.0000E+00  0.0000E+00  0.1000E+01  0.1000E+01
    -14.729  0.0000E+00  0.0000E+00  0.1000E+01  0.1000E+01
    -14.719  0.0000E+00  0.0000E+00  0.1000E+01  0.1000E+01
    -14.709  0.0000E+00  0.0000E+00  0.1000E+01  0.1000E+01
    -14.698  0.0000E+00  0.0000E+00  0.1000E+01  0.1000E+01
    -14.688  0.0000E+00  0.0000E+00  0.1000E+01  0.1000E+01
    -14.678  0.0000E+00  0.0000E+00  0.1000E+01  0.1000E+01
    -14.668  0.0000E+00  0.0000E+00  0.1000E+01  0.1000E+01
    -14.658  0.0000E+00  0.0000E+00  0.1000E+01  0.1000E+01
    -14.648  0.0000E+00  0.0000E+00  0.1000E+01  0.1000E+01
    -14.637  0.0000E+00  0.0000E+00  0.1000E+01  0.1000E+01
    -14.627  0.0000E+00  0.0000E+00  0.1000E+01  0.1000E+01
    -14.617  0.0000E+00  0.0000E+00  0.1000E+01  0.1000E+01
    -14.607  0.0000E+00  0.0000E+00  0.1000E+01  0.1000E+01
    -14.597  0.0000E+00  0.0000E+00  0.1000E+01  0.1000E+01
    -14.587  0.0000E+00  0.0000E+00  0.1000E+01  0.1000E+01
    -14.577  0.0000E+00  0.0000E+00  0.1000E+01  0.1000E+01
    -14.566  0.0000E+00  0.0000E+00  0.1000E+01  0.1000E+01
    -14.556  0.0000E+00  0.0000E+00  0.1000E+01  0.1000E+01
    -14.546  0.0000E+00  0.0000E+00  0.1000E+01  0.1000E+01
    -14.536  0.0000E+00  0.0000E+00  0.1000E+01  0.1000E+01
    -14.526  0.0000E+00  0.0000E+00  0.1000E+01  0.1000E+01
    -14.516  0.0000E+00  0.0000E+00  0.1000E+01  0.1000E+01
    -14.505  0.0000E+00  0.0000E+00  0.1000E+01  0.1000E+01
    -14.495  0.0000E+00  0.0000E+00  0.1000E+01  0.1000E+01
    -14.485  0.0000E+00  0.0000E+00  0.1000E+01  0.1000E+01
    -14.475  0.0000E+00  0.0000E+00  0.1000E+01  0.1000E+01
    -14.465  0.0000E+00  0.0000E+00  0.1000E+01  0.1000E+01
    -14.455  0.0000E+00  0.0000E+00  0.1000E+01  0.1000E+01
    -14.444  0.0000E+00  0.0000E+00  0.1000E+01  0.1000E+01
    -14.434  0.0000E+00  0.0000E+00  0.1000E+01  0.1000E+01
    -14.424  0.0000E+00  0.0000E+00  0.1000E+01  0.1000E+01
    -14.414  0.0000E+00  0.0000E+00  0.1000E+01  0.1000E+01
    -14.404  0.0000E+00  0.0000E+00  0.1000E+01  0.1000E+01
    -14.394  0.0000E+00  0.0000E+00  0.1000E+01  0.1000E+01
    -14.384  0.0000E+00  0.0000E+00  0.1000E+01  0.1000E+01
    -14.373  0.0000E+00  0.0000E+00  0.1000E+01  0.1000E+01
    -14.363  0.0000E+00  0.0000E+00  0.1000E+01  0.1000E+01
    -14.353  0.0000E+00  0.0000E+00  0.1000E+01  0.1000E+01
    -14.343  0.0000E+00  0.0000E+00  0.1000E+01  0.1000E+01
    -14.333  0.0000E+00  0.0000E+00  0.1000E+01  0.1000E+01
    -14.323  0.0000E+00  0.0000E+00  0.1000E+01  0.1000E+01
    -14.312  0.0000E+00  0.0000E+00  0.1000E+01  0.1000E+01
    -14.302  0.0000E+00  0.0000E+00  0.1000E+01  0.1000E+01
    -14.292  0.0000E+00  0.0000E+00  0.1000E+01  0.1000E+01
    -14.282  0.0000E+00  0.0000E+00  0.1000E+01  0.1000E+01
    -14.272  0.0000E+00  0.0000E+00  0.1000E+01  0.1000E+01
    -14.262  0.0000E+00  0.0000E+00  0.1000E+01  0.1000E+01
    -14.251  0.0000E+00  0.0000E+00  0.1000E+01  0.1000E+01
    -14.241  0.0000E+00  0.0000E+00  0.1000E+01  0.1000E+01
    -14.231  0.0000E+00  0.0000E+00  0.1000E+01  0.1000E+01
    -14.221  0.0000E+00  0.0000E+00  0.1000E+01  0.1000E+01
    -14.211  0.0000E+00  0.0000E+00  0.1000E+01  0.1000E+01
    -14.201  0.0000E+00  0.0000E+00  0.1000E+01  0.1000E+01
    -14.191  0.0000E+00  0.0000E+00  0.1000E+01  0.1000E+01
    -14.180  0.0000E+00  0.0000E+00  0.1000E+01  0.1000E+01
    -14.170  0.0000E+00  0.0000E+00  0.1000E+01  0.1000E+01
    -14.160  0.0000E+00  0.0000E+00  0.1000E+01  0.1000E+01
    -14.150  0.0000E+00  0.0000E+00  0.1000E+01  0.1000E+01
    -14.140  0.0000E+00  0.0000E+00  0.1000E+01  0.1000E+01
    -14.130  0.0000E+00  0.0000E+00  0.1000E+01  0.1000E+01
    -14.119  0.0000E+00  0.0000E+00  0.1000E+01  0.1000E+01
    -14.109  0.0000E+00  0.0000E+00  0.1000E+01  0.1000E+01
    -14.099  0.0000E+00  0.0000E+00  0.1000E+01  0.1000E+01
    -14.089  0.0000E+00  0.0000E+00  0.1000E+01  0.1000E+01
    -14.079  0.0000E+00  0.0000E+00  0.1000E+01  0.1000E+01
    -14.069  0.0000E+00  0.0000E+00  0.1000E+01  0.1000E+01
    -14.058  0.0000E+00  0.0000E+00  0.1000E+01  0.1000E+01
    -14.048  0.0000E+00  0.0000E+00  0.1000E+01  0.1000E+01
    -14.038  0.0000E+00  0.0000E+00  0.1000E+01  0.1000E+01
    -14.028  0.0000E+00  0.0000E+00  0.1000E+01  0.1000E+01
    -14.018  0.0000E+00  0.0000E+00  0.1000E+01  0.1000E+01
    -14.008  0.0000E+00  0.0000E+00  0.1000E+01  0.1000E+01
    -13.998  0.0000E+00  0.0000E+00  0.1000E+01  0.1000E+01
    -13.987  0.0000E+00  0.0000E+00  0.1000E+01  0.1000E+01
    -13.977  0.0000E+00  0.0000E+00  0.1000E+01  0.1000E+01
    -13.967  0.0000E+00  0.0000E+00  0.1000E+01  0.1000E+01
    -13.957  0.0000E+00  0.0000E+00  0.1000E+01  0.1000E+01
    -13.947  0.0000E+00  0.0000E+00  0.1000E+01  0.1000E+01
    -13.937  0.0000E+00  0.0000E+00  0.1000E+01  0.1000E+01
    -13.926  0.0000E+00  0.0000E+00  0.1000E+01  0.1000E+01
    -13.916  0.0000E+00  0.0000E+00  0.1000E+01  0.1000E+01
    -13.906  0.0000E+00  0.0000E+00  0.1000E+01  0.1000E+01
    -13.896  0.0000E+00  0.0000E+00  0.1000E+01  0.1000E+01
    -13.886  0.0000E+00  0.0000E+00  0.1000E+01  0.1000E+01
    -13.876  0.0000E+00  0.0000E+00  0.1000E+01  0.1000E+01
    -13.865  0.0000E+00  0.0000E+00  0.1000E+01  0.1000E+01
    -13.855  0.0000E+00  0.0000E+00  0.1000E+01  0.1000E+01
    -13.845  0.0000E+00  0.0000E+00  0.1000E+01  0.1000E+01
    -13.835  0.0000E+00  0.0000E+00  0.1000E+01  0.1000E+01
    -13.825  0.0000E+00  0.0000E+00  0.1000E+01  0.1000E+01
    -13.815  0.0000E+00  0.0000E+00  0.1000E+01  0.1000E+01
    -13.805  0.0000E+00  0.0000E+00  0.1000E+01  0.1000E+01
    -13.794  0.0000E+00  0.0000E+00  0.1000E+01  0.1000E+01
    -13.784  0.0000E+00  0.0000E+00  0.1000E+01  0.1000E+01
    -13.774  0.0000E+00  0.0000E+00  0.1000E+01  0.1000E+01
    -13.764  0.0000E+00  0.0000E+00  0.1000E+01  0.1000E+01
    -13.754  0.0000E+00  0.0000E+00  0.1000E+01  0.1000E+01
    -13.744  0.0000E+00  0.0000E+00  0.1000E+01  0.1000E+01
    -13.733  0.0000E+00  0.0000E+00  0.1000E+01  0.1000E+01
    -13.723  0.0000E+00  0.0000E+00  0.1000E+01  0.1000E+01
    -13.713  0.0000E+00  0.0000E+00  0.1000E+01  0.1000E+01
    -13.703  0.0000E+00  0.0000E+00  0.1000E+01  0.1000E+01
    -13.693  0.0000E+00  0.0000E+00  0.1000E+01  0.1000E+01
    -13.683  0.0000E+00  0.0000E+00  0.1000E+01  0.1000E+01
    -13.672  0.0000E+00  0.0000E+00  0.1000E+01  0.1000E+01
    -13.662  0.0000E+00  0.0000E+00  0.1000E+01  0.1000E+01
    -13.652  0.0000E+00  0.0000E+00  0.1000E+01  0.1000E+01
    -13.642  0.0000E+00  0.0000E+00  0.1000E+01  0.1000E+01
    -13.632  0.0000E+00  0.0000E+00  0.1000E+01  0.1000E+01
    -13.622  0.0000E+00  0.0000E+00  0.1000E+01  0.1000E+01
    -13.612  0.0000E+00  0.0000E+00  0.1000E+01  0.1000E+01
    -13.601  0.0000E+00  0.0000E+00  0.1000E+01  0.1000E+01
    -13.591  0.0000E+00  0.0000E+00  0.1000E+01  0.1000E+01
    -13.581  0.0000E+00  0.0000E+00  0.1000E+01  0.1000E+01
    -13.571  0.0000E+00  0.0000E+00  0.1000E+01  0.1000E+01
    -13.561  0.0000E+00  0.0000E+00  0.1000E+01  0.1000E+01
    -13.551  0.0000E+00  0.0000E+00  0.1000E+01  0.1000E+01
    -13.540  0.0000E+00  0.0000E+00  0.1000E+01  0.1000E+01
    -13.530  0.0000E+00  0.0000E+00  0.1000E+01  0.1000E+01
    -13.520  0.0000E+00  0.0000E+00  0.1000E+01  0.1000E+01
    -13.510  0.0000E+00  0.0000E+00  0.1000E+01  0.1000E+01
    -13.500  0.0000E+00  0.0000E+00  0.1000E+01  0.1000E+01
    -13.490  0.0000E+00  0.0000E+00  0.1000E+01  0.1000E+01
    -13.479  0.0000E+00  0.0000E+00  0.1000E+01  0.1000E+01
    -13.469  0.0000E+00  0.0000E+00  0.1000E+01  0.1000E+01
    -13.459  0.0000E+00  0.0000E+00  0.1000E+01  0.1000E+01
    -13.449  0.0000E+00  0.0000E+00  0.1000E+01  0.1000E+01
    -13.439  0.0000E+00  0.0000E+00  0.1000E+01  0.1000E+01
    -13.429  0.0000E+00  0.0000E+00  0.1000E+01  0.1000E+01
    -13.419  0.0000E+00  0.0000E+00  0.1000E+01  0.1000E+01
    -13.408  0.0000E+00  0.0000E+00  0.1000E+01  0.1000E+01
    -13.398  0.0000E+00  0.0000E+00  0.1000E+01  0.1000E+01
    -13.388  0.0000E+00  0.0000E+00  0.1000E+01  0.1000E+01
    -13.378  0.0000E+00  0.0000E+00  0.1000E+01  0.1000E+01
    -13.368  0.0000E+00  0.0000E+00  0.1000E+01  0.1000E+01
    -13.358  0.0000E+00  0.0000E+00  0.1000E+01  0.1000E+01
    -13.347  0.0000E+00  0.0000E+00  0.1000E+01  0.1000E+01
    -13.337  0.0000E+00  0.0000E+00  0.1000E+01  0.1000E+01
    -13.327  0.0000E+00  0.0000E+00  0.1000E+01  0.1000E+01
    -13.317  0.0000E+00  0.0000E+00  0.1000E+01  0.1000E+01
    -13.307  0.0000E+00  0.0000E+00  0.1000E+01  0.1000E+01
    -13.297  0.0000E+00  0.0000E+00  0.1000E+01  0.1000E+01
    -13.286  0.0000E+00  0.0000E+00  0.1000E+01  0.1000E+01
    -13.276  0.0000E+00  0.0000E+00  0.1000E+01  0.1000E+01
    -13.266  0.0000E+00  0.0000E+00  0.1000E+01  0.1000E+01
    -13.256  0.0000E+00  0.0000E+00  0.1000E+01  0.1000E+01
    -13.246  0.0000E+00  0.0000E+00  0.1000E+01  0.1000E+01
    -13.236  0.0000E+00  0.0000E+00  0.1000E+01  0.1000E+01
    -13.226  0.0000E+00  0.0000E+00  0.1000E+01  0.1000E+01
    -13.215  0.0000E+00  0.0000E+00  0.1000E+01  0.1000E+01
    -13.205  0.0000E+00  0.0000E+00  0.1000E+01  0.1000E+01
    -13.195  0.0000E+00  0.0000E+00  0.1000E+01  0.1000E+01
    -13.185  0.0000E+00  0.0000E+00  0.1000E+01  0.1000E+01
    -13.175  0.0000E+00  0.0000E+00  0.1000E+01  0.1000E+01
    -13.165  0.0000E+00  0.0000E+00  0.1000E+01  0.1000E+01
    -13.154  0.0000E+00  0.0000E+00  0.1000E+01  0.1000E+01
    -13.144  0.0000E+00  0.0000E+00  0.1000E+01  0.1000E+01
    -13.134  0.0000E+00  0.0000E+00  0.1000E+01  0.1000E+01
    -13.124  0.0000E+00  0.0000E+00  0.1000E+01  0.1000E+01
    -13.114  0.0000E+00  0.0000E+00  0.1000E+01  0.1000E+01
    -13.104  0.0000E+00  0.0000E+00  0.1000E+01  0.1000E+01
    -13.094  0.0000E+00  0.0000E+00  0.1000E+01  0.1000E+01
    -13.083  0.0000E+00  0.0000E+00  0.1000E+01  0.1000E+01
    -13.073  0.0000E+00  0.0000E+00  0.1000E+01  0.1000E+01
    -13.063  0.0000E+00  0.0000E+00  0.1000E+01  0.1000E+01
    -13.053  0.0000E+00  0.0000E+00  0.1000E+01  0.1000E+01
    -13.043  0.0000E+00  0.0000E+00  0.1000E+01  0.1000E+01
    -13.033  0.0000E+00  0.0000E+00  0.1000E+01  0.1000E+01
    -13.022  0.0000E+00  0.0000E+00  0.1000E+01  0.1000E+01
    -13.012  0.0000E+00  0.0000E+00  0.1000E+01  0.1000E+01
    -13.002  0.0000E+00  0.0000E+00  0.1000E+01  0.1000E+01
    -12.992  0.0000E+00  0.0000E+00  0.1000E+01  0.1000E+01
    -12.982  0.0000E+00  0.0000E+00  0.1000E+01  0.1000E+01
    -12.972  0.0000E+00  0.0000E+00  0.1000E+01  0.1000E+01
    -12.961  0.0000E+00  0.0000E+00  0.1000E+01  0.1000E+01
    -12.951  0.0000E+00  0.0000E+00  0.1000E+01  0.1000E+01
    -12.941  0.0000E+00  0.0000E+00  0.1000E+01  0.1000E+01
    -12.931  0.0000E+00  0.0000E+00  0.1000E+01  0.1000E+01
    -12.921  0.0000E+00  0.0000E+00  0.1000E+01  0.1000E+01
    -12.911  0.0000E+00  0.0000E+00  0.1000E+01  0.1000E+01
    -12.901  0.0000E+00  0.0000E+00  0.1000E+01  0.1000E+01
    -12.890  0.0000E+00  0.0000E+00  0.1000E+01  0.1000E+01
    -12.880  0.0000E+00  0.0000E+00  0.1000E+01  0.1000E+01
    -12.870  0.0000E+00  0.0000E+00  0.1000E+01  0.1000E+01
    -12.860  0.0000E+00  0.0000E+00  0.1000E+01  0.1000E+01
    -12.850  0.0000E+00  0.0000E+00  0.1000E+01  0.1000E+01
    -12.840  0.0000E+00  0.0000E+00  0.1000E+01  0.1000E+01
    -12.829  0.0000E+00  0.0000E+00  0.1000E+01  0.1000E+01