    3    3    1    2
  0.3871177E+02  0.2990000E-09  0.2990000E-09  0.1500000E-08  0.5000000E-15
  1.000000000000000E-004
  CAR
 Be2C
    8   63   12

  0.0000000E+00  0.0000000E+00  0.0000000E+00  0.1587302E-01
   1      -14.484942    -14.484817
   2       -6.130102     -6.130333
   3       -1.939353     -1.939155
   4       -1.939099     -1.938902
   5       -0.372954     -0.381273
   6        1.636896      1.578063
   7        2.265800      1.997261
   8        3.519686      3.519542
   9        3.519958      3.519814
  10        4.215287      4.061412
  11        4.296700      4.129926
  12        8.262362      7.039066

  0.1665000E-01  0.1665000E-01  0.0000000E+00  0.1587302E-01
   1      -14.474129    -14.474004
   2       -6.116377     -6.116607
   3       -2.019563     -2.019372
   4       -1.985966     -1.985771
   5       -0.354520     -0.362828
   6        1.651730      1.593198
   7        2.284234      2.015725
   8        3.566358      3.564564
   9        3.593763      3.593620
  10        4.232390      4.080312
  11        4.314454      4.147698
  12        7.271700      7.050312

  0.3330000E-01  0.3330000E-01  0.0000000E+00  0.1587302E-01
   1      -14.441727    -14.441601
   2       -6.075406     -6.075633
   3       -2.245715     -2.245538
   4       -2.120011     -2.119827
   5       -0.300196     -0.308475
   6        1.696692      1.639013
   7        2.339451      2.071060
   8        3.698230      3.690052
   9        3.799421      3.799155
  10        4.284759      4.139598
  11        4.367820      4.201243
  12        7.149433      7.925204

  0.4995000E-01  0.4995000E-01  0.0000000E+00  0.1587302E-01
   1      -14.387891    -14.387763
   2       -6.007809     -6.008031
   3       -2.581889     -2.581726
   4       -2.326941     -2.326771
   5       -0.211615     -0.219836
   6        1.772484      1.716126
   7        2.431328      2.163168
   8        3.892312      3.867331
   9        4.098734      4.096901
  10        4.376627      4.249571
  11        4.457565      4.292638
  12        8.227190      7.102671

  0.6660000E-01  0.6660000E-01  0.0000000E+00  0.1587302E-01
   1      -14.312886    -14.312757
   2       -5.914858     -5.915074
   3       -2.990962     -2.990812
   4       -2.587236     -2.587083
   5       -0.089699     -0.097831
   6        1.878959      1.824375
   7        2.559739      2.291917
   8        4.111410      4.051469
   9        4.443525      4.387242
  10        4.520090      4.430591
  11        4.590660      4.480296
  12        8.482388      7.468022

  0.8325000E-01  0.8325000E-01  0.0000000E+00  0.1587302E-01
   1      -14.217108    -14.216977
   2       -5.798810     -5.799017
   3       -3.443163     -3.443024
   4       -2.882049     -2.881914
   5        0.065118      0.057113
   6        2.014367      1.962121
   7        2.724561      2.457220
   8        4.308790      4.209665
   9        4.709696      4.557215
  10        4.733289      4.687888
  11        4.857040      4.843175
  12        6.893738      6.833526

  0.9990000E-01  0.9990000E-01  0.0000000E+00  0.1587302E-01
   1      -14.101127    -14.100992
   2       -5.663655     -5.663849
   3       -3.916977     -3.916849
   4       -3.193722     -3.193604
   5        0.252421      0.244586
   6        2.174812      2.125718
   7        2.925579      2.658910
   8        4.458337      4.339616
   9        4.907895      4.747366
  10        5.010020      4.992605
  11        5.222473      5.217186
  12        9.200741      9.193915

  0.1165500E+00  0.1165500E+00  0.0000000E+00  0.1587302E-01
   1      -13.965707    -13.965569
   2       -5.517098     -5.517274
   3       -4.396565     -4.396447
   4       -3.503966     -3.503868
   5        0.471556      0.463937
   6        2.352778      2.308088
   7        3.162503      2.896762
   8        4.555660      4.435676
   9        5.128298      4.966873
  10        5.319189      5.324497
  11        5.581269      5.598002
  12        9.925359      9.630727

  0.1332000E+00  0.1332000E+00  0.0000000E+00  0.1587302E-01
   1      -13.811889    -13.811746
   2       -5.375663     -5.375811
   3       -4.871513     -4.871403
   4       -3.789436     -3.789363
   5        0.721387      0.714039
   6        2.533721      2.495372
   7        3.434712      3.170318
   8        4.592548      4.481755
   9        5.374077      5.211650
  10        5.641282      5.630508
  11        6.586523      5.927930
  12        7.631273      6.598236

  0.1498500E+00  0.1498500E+00  0.0000000E+00  0.1587302E-01
   1      -13.641087    -13.640938
   2       -5.333357     -5.333256
   3       -5.275789     -5.275894
   4       -4.009021     -4.008986
   5        1.000112      0.993098
   6        2.690317      2.660928
   7        3.741160      3.478811
   8        4.581253      4.481300
   9        5.630430      5.472370
  10        6.160549      5.926828
  11        6.786232      6.243250
  12       10.309463      6.700640

  0.1665000E+00  0.1665000E+00  0.0000000E+00  0.1587302E-01
   1      -13.455196    -13.455041
   2       -5.775561     -5.775469
   3       -5.280295     -5.280339
   4       -4.097771     -4.097784
   5        1.304741      1.298142
   6        2.776911      2.758477
   7        4.079527      3.820657
   8        4.581322      4.489014
   9        5.864454      5.721792
  10        6.247294      6.256067
  11        6.770983      6.564660
  12        7.137302      7.350745

  0.1831500E+00  0.1831500E+00  0.0000000E+00  0.1587302E-01
   1      -13.256770    -13.256607
   2       -6.191765     -6.191683
   3       -5.419526     -5.419524
   4       -4.024985     -4.025028
   5        1.630289      1.624213
   6        2.748581      2.739552
   7        4.443894      4.191967
   8        4.677358      4.588017
   9        5.971195      5.864064
  10        6.550986      6.536239
  11        6.711762      6.673955
  12        7.314277      7.239454

  0.1998000E+00  0.1998000E+00  0.0000000E+00  0.1587302E-01
   1      -13.049274    -13.049103
   2       -6.576391     -6.576319
   3       -5.645638     -5.645616
   4       -3.840527     -3.840566
   5        1.967818      1.962409
   6        2.606866      2.602980
   7        4.814658      4.581129
   8        4.902409      4.816022
   9        5.897928      5.818909
  10        6.895789      6.841620
  11        7.341034      6.924895
  12       11.247222      7.556890

  0.2164500E+00  0.2164500E+00  0.0000000E+00  0.1587302E-01
   1      -12.837384    -12.837201
   2       -6.922961     -6.922899
   3       -5.906407     -5.906380
   4       -3.600793     -3.600807
   5        2.300703      2.296156
   6        2.399015      2.397216
   7        5.106273      4.940633
   8        5.236044      5.157523
   9        5.837921      5.714170
  10        7.208629      7.255067
  11        7.349352      7.647897
  12        8.021447     10.756566

  0.2331000E+00  0.2331000E+00  0.0000000E+00  0.1587302E-01
   1      -12.627320    -12.627126
   2       -7.224202     -7.224153
   3       -6.175290     -6.175264
   4       -3.339019     -3.338994
   5        2.175282      2.174252
   6        2.597501      2.594035
   7        5.156391      5.098320
   8        5.649657      5.571367
   9        6.074242      5.849571
  10        7.399238      7.577056
  11        7.760069      7.963593
  12        8.382953      8.351395

  0.2497500E+00  0.2497500E+00  0.0000000E+00  0.1587302E-01
   1      -12.427143    -12.426936
   2       -7.471511     -7.471475
   3       -6.440455     -6.440432
   4       -3.077292     -3.077219
   5        1.973815      1.973062
   6        2.805228      2.802945
   7        5.133751      5.110711
   8        6.123418      6.047693
   9        6.526671      6.272577
  10        7.497118      7.492480
  11        8.181060      8.128457
  12        8.797398      8.651420

  0.2664000E+00  0.2664000E+00  0.0000000E+00  0.1587302E-01
   1      -12.246646    -12.246425
   2       -7.654820     -7.654795
   3       -6.696030     -6.696010
   4       -2.834957     -2.834831
   5        1.823603      1.822939
   6        2.867924      2.866562
   7        5.242205      5.227627
   8        6.644877      6.573387
   9        7.059056      6.801502
  10        7.494216      8.360149
  11        8.577725      9.039842
  12        9.277539      9.324218

  0.2830500E+00  0.2830500E+00  0.0000000E+00  0.1587302E-01
   1      -12.096525    -12.096292
   2       -7.763766     -7.763753
   3       -6.938849     -6.938834
   4       -2.630867     -2.630687
   5        1.748476      1.747825
   6        2.781226      2.780316
   7        5.522870      5.511668
   8        7.197281      7.129640
   9        7.392021      7.378296
  10        7.627848      7.388384
  11        8.572511      8.524722
  12        9.466143      9.307717

  0.2997000E+00  0.2997000E+00  0.0000000E+00  0.1587302E-01
   1      -11.986228    -11.985985
   2       -7.789487     -7.789482
   3       -7.166944     -7.166933
   4       -2.480497     -2.480274
   5        1.766284      1.765620
   6        2.595035      2.594285
   7        5.930057      5.921026
   8        7.195438      7.191151
   9        7.802907      7.739941
  10        8.045714      7.917157
  11        8.437062      8.289237
  12        9.682813     10.071320

  0.3163500E+00  0.3163500E+00  0.0000000E+00  0.1587302E-01
   1      -11.921079    -11.920830
   2       -7.728004     -7.728002
   3       -7.379203     -7.379195
   4       -2.392464     -2.392212
   5        1.884390      1.883711
   6        2.360002      2.359301
   7        6.391588      6.384574
   8        6.985330      6.981047
   9        7.822464      7.804063
  10        8.379484      8.324947
  11        8.990643      8.748229
  12        9.508589      9.410096

  0.3330000E+00  0.3330000E+00  0.0000000E+00  0.1587302E-01
   1      -11.900129    -11.899878
   2       -7.582127     -7.582124
   3       -7.574726     -7.574722
   4       -2.364570     -2.364310
   5        2.096794      2.096107
   6        2.106956      2.106270
   7        6.762891      6.757880
   8        6.771262      6.766281
   9        7.648975      7.632608
  10        8.768080      8.655925
  11        9.435094      9.362252
  12        9.634684      9.432471

  0.3330000E+00  0.3330000E+00  0.0000000E+00  0.1587302E-01
   1      -11.900129    -11.899878
   2       -7.582127     -7.582124
   3       -7.574726     -7.574722
   4       -2.364570     -2.364310
   5        2.096794      2.096107
   6        2.106956      2.106270
   7        6.762893      6.757881
   8        6.771262      6.766281
   9        7.648974      7.632601
  10        8.695200      8.673608
  11        9.476976      9.350718
  12        9.564866      9.378985

  0.3413500E+00  0.3163500E+00  0.0000000E+00  0.1587302E-01
   1      -11.904784    -11.904533
   2       -7.671484     -7.671483
   3       -7.473832     -7.473826
   4       -2.370714     -2.370456
   5        1.971467      1.970782
   6        2.241733      2.241042
   7        6.663589      6.658194
   8        6.808851      6.803527
   9        7.712446      7.696287
  10        8.661234      8.598401
  11        9.290845      9.212774
  12        9.524735      9.227973

  0.3497000E+00  0.2997000E+00  0.0000000E+00  0.1587302E-01
   1      -11.917496    -11.917247
   2       -7.758175     -7.758175
   3       -7.354102     -7.354093
   4       -2.386851     -2.386598
   5        1.844632      1.843949
   6        2.394756      2.394060
   7        6.569437      6.563632
   8        6.744570      6.738283
   9        7.868621      7.851851
  10        8.537828      8.565377
  11        9.067125      8.997569
  12        9.352084      9.077083

  0.3580500E+00  0.2830500E+00  0.0000000E+00  0.1587302E-01
   1      -11.936918    -11.936670
   2       -7.840479     -7.840481
   3       -7.219260     -7.219247
   4       -2.411173     -2.410926
   5        1.719528      1.718846
   6        2.560049      2.559345
   7        6.484136      6.477898
   8        6.625947      6.619044
   9        8.039854      8.030051
  10        8.422812      8.393004
  11        8.991530      8.883260
  12        9.207240      8.971906

  0.3664000E+00  0.2664000E+00  0.0000000E+00  0.1587302E-01
   1      -11.961683    -11.961437
   2       -7.918332     -7.918335
   3       -7.071421     -7.071404
   4       -2.441911     -2.441673
   5        1.596747      1.596067
   6        2.733769      2.733049
   7        6.409582      6.402878
   8        6.483413      6.476314
   9        8.135353      8.100845
  10        8.305959      8.272247
  11        8.819442      8.684625
  12        9.152885      8.864484

  0.3747500E+00  0.2497500E+00  0.0000000E+00  0.1587302E-01
   1      -11.990459    -11.990215
   2       -7.991638     -7.991642
   3       -6.912549     -6.912527
   4       -2.477058     -2.476829
   5        1.476729      1.476052
   6        2.911802      2.911056
   7        6.327121      6.320118
   8        6.350221      6.343049
   9        8.079866      8.138820
  10        8.209448      8.215629
  11        8.821628      8.603958
  12        9.039024      8.847936

  0.3831000E+00  0.2331000E+00  0.0000000E+00  0.1587302E-01
   1      -12.022021    -12.021780
   2       -8.060383     -8.060388
   3       -6.744681     -6.744653
   4       -2.515105     -2.514885
   5        1.359758      1.359083
   6        3.089857      3.089070
   7        6.166849      6.160220
   8        6.302773      6.295008
   9        7.879855      7.978737
  10        8.088492      8.071317
  11        8.530220      8.434353
  12        8.745003      8.653994

  0.3914500E+00  0.2164500E+00  0.0000000E+00  0.1587302E-01
   1      -12.055268    -12.055030
   2       -8.124576     -8.124583
   3       -6.570184     -6.570151
   4       -2.554765     -2.554555
   5        1.246007      1.245335
   6        3.263371      3.262523
   7        5.999430      5.993334
   8        6.273414      6.264977
   9        7.658133      7.630568
  10        7.994352      7.943329
  11        8.481409      8.339502
  12        8.832605      8.501931

  0.3998000E+00  0.1998000E+00  0.0000000E+00  0.1587302E-01
   1      -12.089205    -12.088969
   2       -8.184123     -8.184131
   3       -6.390977     -6.390939
   4       -2.594891     -2.594690
   5        1.135677      1.135010
   6        3.427761      3.426825
   7        5.826623      5.821159
   8        6.263069      6.253645
   9        7.875942      7.499971
  10        8.257172      7.944497
  11        8.508319      8.203828
  12        8.785090      8.288423

  0.4081500E+00  0.1831500E+00  0.0000000E+00  0.1587302E-01
   1      -12.122979    -12.122746
   2       -8.239013     -8.239022
   3       -6.209525     -6.209480
   4       -2.634411     -2.634219
   5        1.028921      1.028258
   6        3.578716      3.577661
   7        5.648720      5.643981
   8        6.272025      6.261764
   9        7.216350      7.188952
  10        7.840733      7.776932
  11        8.258466      8.123861
  12        8.507431      8.175039

  0.4165000E+00  0.1665000E+00  0.0000000E+00  0.1587302E-01
   1      -12.155852    -12.155620
   2       -8.289211     -8.289220
   3       -6.028056     -6.028005
   4       -2.672608     -2.672424
   5        0.925972      0.925316
   6        3.712551      3.711343
   7        5.467303      5.463263
   8        6.300319      6.288737
   9        7.021894      6.995499
  10        7.821370      7.715044
  11        8.181034      8.015466
  12        8.526599      8.112162

  0.4248500E+00  0.1498500E+00  0.0000000E+00  0.1587302E-01
   1      -12.187193    -12.186963
   2       -8.334741     -8.334752
   3       -5.849282     -5.849226
   4       -2.708800     -2.708623
   5        0.827162      0.826512
   6        3.826825      3.825432
   7        5.284860      5.281455
   8        6.345009      6.331721
   9        6.849057      6.824525
  10        7.746163      7.693362
  11        8.084846      7.941656
  12        8.368384      8.155449

  0.4332000E+00  0.1332000E+00  0.0000000E+00  0.1587302E-01
   1      -12.216459    -12.216231
   2       -8.375504     -8.375516
   3       -5.675878     -5.675815
   4       -2.742249     -2.742080
   5        0.733048      0.732405
   6        3.920739      3.919137
   7        5.105279      5.102411
   8        6.401226      6.385710
   9        6.700316      6.676410
  10        7.724836      7.665381
  11        8.005991      7.894865
  12        8.226183      8.187826

  0.4415500E+00  0.1165500E+00  0.0000000E+00  0.1587302E-01
   1      -12.243218    -12.242992
   2       -8.411551     -8.411563
   3       -5.511031     -5.510962
   4       -2.772815     -2.772651
   5        0.644326      0.643691
   6        3.994984      3.993165
   7        4.932997      4.930558
   8        6.461589      6.443308
   9        6.574257      6.550825
  10        7.720736      7.623904
  11        7.963057      7.789497
  12        8.200229      8.100750

  0.4499000E+00  0.9990000E-01  0.0000000E+00  0.1587302E-01
   1      -12.267086    -12.266861
   2       -8.442811     -8.442824
   3       -5.357750     -5.357676
   4       -2.800025     -2.799866
   5        0.562103      0.561475
   6        4.051616      4.049583
   7        4.772904      4.770792
   8        6.469326      6.446221
   9        6.518690      6.497229
  10        7.765646      7.620291
  11        7.884445      7.755467
  12        8.252907      8.046748

  0.4582500E+00  0.8325000E-01  0.0000000E+00  0.1587302E-01
   1      -12.287755    -12.287532
   2       -8.469289     -8.469302
   3       -5.219467     -5.219388
   4       -2.823321     -2.823167
   5        0.487814      0.487193
   6        4.093477      4.091247
   7        4.629535      4.627665
   8        6.383740      6.360922
   9        6.566763      6.541986
  10        7.731868      7.560525
  11        7.840872      7.693254
  12        8.230656      8.033205

  0.4666000E+00  0.6660000E-01  0.0000000E+00  0.1587302E-01
   1      -12.304988    -12.304765
   2       -8.491014     -8.491028
   3       -5.099976     -5.099892
   4       -2.842814     -2.842663
   5        0.423117      0.422502
   6        4.123282      4.120881
   7        4.506810      4.505115
   8        6.315899      6.293282
   9        6.603039      6.575251
  10        7.730351      7.536089
  11        7.793761      7.675418
  12        8.181652      8.007206

  0.4749500E+00  0.4995000E-01  0.0000000E+00  0.1587302E-01
   1      -12.318580    -12.318358
   2       -8.507897     -8.507911
   3       -5.002500     -5.002411
   4       -2.858062     -2.857914
   5        0.369953      0.369343
   6        4.143704      4.141169
   7        4.408036      4.406462
   8        6.264458      6.241996
   9        6.628014      6.597819
  10        7.726752      7.516570
  11        7.764476      7.608060
  12        8.191048      7.981641

  0.4833000E+00  0.3330000E-01  0.0000000E+00  0.1587302E-01
   1      -12.328389    -12.328167
   2       -8.519974     -8.519988
   3       -4.930143     -4.930051
   4       -2.869127     -2.868981
   5        0.330238      0.329632
   6        4.156773      4.154139
   7        4.335721      4.334226
   8        6.228408      6.206044
   9        6.643552      6.611633
  10        7.732184      7.499162
  11        7.796587      7.585414
  12        8.142877      7.916564

  0.4916500E+00  0.1665000E-01  0.0000000E+00  0.1587302E-01
   1      -12.334315    -12.334094
   2       -8.527219     -8.527233
   3       -4.885691     -4.885597
   4       -2.875806     -2.875661
   5        0.305636      0.305033
   6        4.164011      4.161317
   7        4.291631      4.290179
   8        6.207046      6.184748
   9        6.651830      6.618953
  10        7.717285      7.490832
  11        7.725943      7.573269
  12        8.106421      7.894832

  0.5000000E+00  0.0000000E+00  0.0000000E+00  0.1587302E-01
   1      -12.336290    -12.336069
   2       -8.529608     -8.529622
   3       -4.870534     -4.870439
   4       -2.878032     -2.877888
   5        0.297305      0.296703
   6        4.166335      4.163621
   7        4.276825      4.275387
   8        6.199973      6.177688
   9        6.654407      6.621140
  10        7.714765      7.486694
  11        7.721863      7.567396
  12        8.104011      7.899566

  0.5000000E+00  0.0000000E+00  0.0000000E+00  0.1587302E-01
   1      -12.336290    -12.336069
   2       -8.529608     -8.529622
   3       -4.870534     -4.870439
   4       -2.878032     -2.877888
   5        0.297305      0.296703
   6        4.166335      4.163620
   7        4.276825      4.275387
   8        6.199974      6.177690
   9        6.654412      6.621137
  10        7.714319      7.486748
  11        7.721882      7.567384
  12        8.102749      7.891885

  0.4750000E+00  0.0000000E+00  0.0000000E+00  0.1587302E-01
   1      -12.363091    -12.362872
   2       -8.486178     -8.486190
   3       -4.859279     -4.859185
   4       -2.928125     -2.927995
   5        0.362124      0.361532
   6        3.947556      3.944481
   7        4.409515      4.408006
   8        6.251914      6.219994
   9        6.529843      6.483949
  10        7.384908      7.145053
  11        7.800757      7.707215
  12        8.434395      8.219060

  0.4500000E+00  0.0000000E+00  0.0000000E+00  0.1587302E-01
   1      -12.439727    -12.439514
   2       -8.359739     -8.359744
   3       -4.825116     -4.825021
   4       -3.066513     -3.066421
   5        0.543485      0.542912
   6        3.628759      3.624824
   7        4.490776      4.488720
   8        6.250870      6.168131
   9        6.320606      6.242789
  10        7.050063      6.866328
  11        8.577443      7.782606
  12        9.231068      8.938420

  0.4250000E+00  0.0000000E+00  0.0000000E+00  0.1587302E-01
   1      -12.556683    -12.556480
   2       -8.160169     -8.160164
   3       -4.768337     -4.768241
   4       -3.266482     -3.266435
   5        0.810696      0.810122
   6        3.285658      3.280924
   7        4.490054      4.486023
   8        5.931610      5.821031
   9        6.154129      5.993426
  10        6.985940      6.883321
  11        7.897466      7.814139
  12        8.555398      8.442984

  0.4000000E+00  0.0000000E+00  0.0000000E+00  0.1587302E-01
   1      -12.702255    -12.702063
   2       -7.899897     -7.899881
   3       -4.689201     -4.689103
   4       -3.501679     -3.501676
   5        1.127225      1.126574
   6        2.946169      2.940755
   7        4.423722      4.415458
   8        5.608246      5.444340
   9        5.824555      5.678982
  10        7.003918      6.897763
  11        7.912172      7.811214
  12        8.355355      8.248236

  0.3750000E+00  0.0000000E+00  0.0000000E+00  0.1587302E-01
   1      -12.865503    -12.865320
   2       -7.591202     -7.591175
   3       -4.588407     -4.588308
   4       -3.752224     -3.752257
   5        1.446169      1.445182
   6        2.641959      2.636051
   7        4.308140      4.292801
   8        5.273103      5.057908
   9        5.517857      5.411606
  10        6.881426      6.752601
  11        7.760874      7.625066
  12        8.433405      8.785343

  0.3500000E+00  0.0000000E+00  0.0000000E+00  0.1587302E-01
   1      -13.037448    -13.037275
   2       -7.244820     -7.244784
   3       -4.466110     -4.466008
   4       -4.003979     -4.004043
   5        1.665114      1.662769
   6        2.453981      2.448190
   7        4.167400      4.142891
   8        4.920808      4.680084
   9        5.283066      5.199251
  10        6.655206      6.511373
  11        7.499809      7.372749
  12        8.579958      8.512759

  0.3250000E+00  0.0000000E+00  0.0000000E+00  0.1587302E-01
   1      -13.211310    -13.211144
   2       -6.870593     -6.870549
   3       -4.323090     -4.322986
   4       -4.246630     -4.246719
   5        1.618376      1.613632
   6        2.512057      2.505982
   7        4.043570      4.009263
   8        4.573047      4.322695
   9        5.101166      5.027870
  10        6.387758      6.235044
  11        7.239029      7.103661
  12        8.625229      8.639429

  0.3000000E+00  0.0000000E+00  0.0000000E+00  0.1587302E-01
   1      -13.382094    -13.381936
   2       -6.479551     -6.479502
   3       -4.470318     -4.470424
   4       -4.160321     -4.160213
   5        1.399148      1.393138
   6        2.661147      2.649785
   7        3.998318      3.924514
   8        4.248657      4.027845
   9        4.949705      4.881764
  10        6.111058      5.953464
  11        7.001461      6.875493
  12        8.551328      8.321618

  0.2750000E+00  0.0000000E+00  0.0000000E+00  0.1587302E-01
   1      -13.546189    -13.546037
   2       -6.089226     -6.089183
   3       -4.659495     -4.659606
   4       -3.979181     -3.979069
   5        1.145918      1.139273
   6        2.704284      2.682513
   7        3.907891      3.656517
   8        4.131441      4.084123
   9        4.814673      4.749996
  10        5.841727      5.680282
  11        6.817488      6.681130
  12        9.665699      7.801832

  0.2500000E+00  0.0000000E+00  0.0000000E+00  0.1587302E-01
   1      -13.700966    -13.700820
   2       -5.743372     -5.743365
   3       -4.772907     -4.772988
   4       -3.780928     -3.780811
   5        0.897707      0.890647
   6        2.627172      2.595184
   7        3.634521      3.372895
   8        4.320462      4.275520
   9        4.688072      4.628299
  10        5.584722      5.422055
  11        6.661477      6.559435
  12        7.267728      8.202302

  0.2250000E+00  0.0000000E+00  0.0000000E+00  0.1587302E-01
   1      -13.844510    -13.844368
   2       -5.554186     -5.554274
   3       -4.702144     -4.702135
   4       -3.567829     -3.567707
   5        0.665661      0.658293
   6        2.489724      2.450278
   7        3.377535      3.113457
   8        4.518607      4.430067
   9        4.565642      4.543343
  10        5.348039      5.184230
  11        6.598454      6.549871
  12        6.730860      6.778113

  0.2000000E+00  0.0000000E+00  0.0000000E+00  0.1587302E-01
   1      -13.975413    -13.975275
   2       -5.568638     -5.568797
   3       -4.404158     -4.404080
   4       -3.342820     -3.342691
   5        0.454089      0.446476
   6        2.334572      2.289850
   7        3.145740      2.880223
   8        4.444980      4.364475
   9        4.644124      4.601973
  10        5.133361      4.969040
  11        6.200337      6.200248
  12        6.610138      6.519583

  0.1750000E+00  0.0000000E+00  0.0000000E+00  0.1587302E-01
   1      -14.092642    -14.092507
   2       -5.665771     -5.665959
   3       -4.006075     -4.005968
   4       -3.109813     -3.109677
   5        0.264983      0.257173
   6        2.182013      2.133434
   7        2.940411      2.673964
   8        4.324115      4.252899
   9        4.670909      4.606279
  10        4.942249      4.778683
  11        5.684800      5.683916
  12        9.044561      6.620068

  0.1500000E+00  0.0000000E+00  0.0000000E+00  0.1587302E-01
   1      -14.195415    -14.195283
   2       -5.776271     -5.776474
   3       -3.584217     -3.584092
   4       -2.873781     -2.873635
   5        0.099428      0.091461
   6        2.042037      1.990534
   7        2.761995      2.494865
   8        4.200398      4.138988
   9        4.618562      4.532129
  10        4.775052      4.614273
  11        5.193706      5.193552
  12        8.805491      6.745670

  0.1250000E+00  0.0000000E+00  0.0000000E+00  0.1587302E-01
   1      -14.283158    -14.283028
   2       -5.879348     -5.879561
   3       -3.169532     -3.169392
   4       -2.641910     -2.641755
   5       -0.041985     -0.050076
   6        1.919666      1.865900
   7        2.610745      2.343112
   8        4.069736      4.022414
   9        4.524184      4.417214
  10        4.631062      4.471031
  11        4.740689      4.740586
  12        6.985161      6.876755

  0.1000000E+00  0.0000000E+00  0.0000000E+00  0.1587302E-01
   1      -14.355438    -14.355310
   2       -5.967577     -5.967797
   3       -2.782576     -2.782423
   4       -2.423158     -2.422991
   5       -0.158907     -0.167090
   6        1.817922      1.762396
   7        2.486884      2.218801
   8        3.932299      3.899624
   9        4.418748      4.300799
  10        4.510822      4.347018
  11        6.999153      6.862695
  12        8.474923      8.454607

  0.7500000E-01  0.0000000E+00  0.0000000E+00  0.1587302E-01
   1      -14.411945    -14.411819
   2       -6.037953     -6.038178
   3       -2.443637     -2.443470
   4       -2.229609     -2.229432
   5       -0.251073     -0.259321
   6        1.738341      1.681415
   7        2.390237      2.121979
   8        3.783307      3.768221
   9        3.998842      3.998745
  10        4.332375      4.194230
  11        4.416996      4.250902
  12        7.213297      7.285978

  0.5000000E-01  0.0000000E+00  0.0000000E+00  0.1587302E-01
   1      -14.452454    -14.452328
   2       -6.088930     -6.089158
   3       -2.174894     -2.174713
   4       -2.074923     -2.074735
   5       -0.318071     -0.326360
   6        1.681726      1.623771
   7        2.321163      2.052740
   8        3.649925      3.644186
   9        3.739755      3.739625
  10        4.267078      4.119200
  11        4.350104      4.183462
  12        7.098915      7.058780

  0.2500000E-01  0.0000000E+00  0.0000000E+00  0.1587302E-01
   1      -14.476815    -14.476690
   2       -6.119761     -6.119992
   3       -2.000030     -1.999837
   4       -1.974313     -1.974117
   5       -0.359082     -0.367393
   6        1.648046      1.589441
   7        2.279651      2.011134
   8        3.554547      3.553182
   9        3.576038      3.575902
  10        4.228154      4.075596
  11        4.310038      4.143278