vasp.5.4.1 08Jul2015 (build Apr 24 2014 00:09:29) complex standard with constrain (TS) & VASPsol & vtstcode
 executed on Dell of Center for Computational Chemistry by sc81076@cb1006.para.bscc date 2022.06.08 16:50:34
 running on   96 total cores
 distrk:  each k-point on   96 cores,    1 groups
 distr:  one band on NCORES_PER_BAND=  12 cores,    8 groups


--------------------------------------------------------------------------------------------------------


 INCAR:
 POTCAR:    PAW_PBE H 15Jun2001                   
 POTCAR:    PAW_PBE C 08Apr2002                   
 POTCAR:    PAW_PBE N 08Apr2002                   
 POTCAR:    PAW_PBE H 15Jun2001                   
   VRHFIN =H: ultrasoft test                                                    
   LEXCH  = PE                                                                  
   EATOM  =    12.4884 eV,    0.9179 Ry                                         
                                                                                
   TITEL  = PAW_PBE H 15Jun2001                                                 
   LULTRA =        F    use ultrasoft PP ?                                      
   IUNSCR =        0    unscreen: 0-lin 1-nonlin 2-no                           
   RPACOR =    0.000    partial core radius                                     
   POMASS =    1.000; ZVAL   =    1.000    mass and valenz                      
   RCORE  =    1.100    outmost cutoff radius                                   
   RWIGS  =    0.700; RWIGS  =    0.370    wigner-seitz radius (au A)           
   ENMAX  =  250.000; ENMIN  =  200.000 eV                                      
   RCLOC  =    0.701    cutoff for local pot                                    
   LCOR   =        T    correct aug charges                                     
   LPAW   =        T    paw PP                                                  
   EAUG   =  400.000                                                            
   RMAX   =    1.123    core radius for proj-oper                               
   RAUG   =    1.200    factor for augmentation sphere                          
   RDEP   =    1.112    radius for radial grids                                 
   RDEPT  =    0.926    core radius for aug-charge                              
                                                                                
   Atomic configuration                                                         
    2 entries                                                                   
     n  l   j            E        occ.                                          
     1  0  0.50        -6.4927   1.0000                                         
     2  1  0.50        -3.4015   0.0000                                         
   Description                                                                  
     l       E           TYP  RCUT    TYP  RCUT                                 
     0     -6.4927494     23  1.100                                             
     0      6.8029130     23  1.100                                             
     1     -4.0817478     23  1.100                                             
  local pseudopotential read in
  atomic valenz-charges read in
  non local Contribution for L=           0  read in
    real space projection operators read in
  non local Contribution for L=           0  read in
    real space projection operators read in
  non local Contribution for L=           1  read in
    real space projection operators read in
    PAW grid and wavefunctions read in
 
   number of l-projection  operators is LMAX  =           3
   number of lm-projection operators is LMMAX =           5
 
 POTCAR:    PAW_PBE C 08Apr2002                   
   VRHFIN =C: s2p2                                                              
   LEXCH  = PE                                                                  
   EATOM  =   147.1560 eV,   10.8157 Ry                                         
                                                                                
   TITEL  = PAW_PBE C 08Apr2002                                                 
   LULTRA =        F    use ultrasoft PP ?                                      
   IUNSCR =        1    unscreen: 0-lin 1-nonlin 2-no                           
   RPACOR =    1.200    partial core radius                                     
   POMASS =   12.011; ZVAL   =    4.000    mass and valenz                      
   RCORE  =    1.500    outmost cutoff radius                                   
   RWIGS  =    1.630; RWIGS  =    0.863    wigner-seitz radius (au A)           
   ENMAX  =  400.000; ENMIN  =  300.000 eV                                      
   ICORE  =        2    local potential                                         
   LCOR   =        T    correct aug charges                                     
   LPAW   =        T    paw PP                                                  
   EAUG   =  644.873                                                            
   DEXC   =    0.000                                                            
   RMAX   =    1.529    core radius for proj-oper                               
   RAUG   =    1.300    factor for augmentation sphere                          
   RDEP   =    1.501    radius for radial grids                                 
   RDEPT  =    1.300    core radius for aug-charge                              
                                                                                
   Atomic configuration                                                         
    4 entries                                                                   
     n  l   j            E        occ.                                          
     1  0  0.50      -273.3789   2.0000                                         
     2  0  0.50       -13.7508   2.0000                                         
     2  1  0.50        -5.2854   2.0000                                         
     3  2  1.50        -5.4423   0.0000                                         
   Description                                                                  
     l       E           TYP  RCUT    TYP  RCUT                                 
     0    -13.7508458     23  1.200                                             
     0     -8.2022199     23  1.200                                             
     1     -5.2854383     23  1.500                                             
     1     34.0145650     23  1.500                                             
     2     -5.4423304      7  1.500                                             
  local pseudopotential read in
  partial core-charges read in
  partial kinetic energy density read in
  atomic valenz-charges read in
  non local Contribution for L=           0  read in
    real space projection operators read in
  non local Contribution for L=           0  read in
    real space projection operators read in
  non local Contribution for L=           1  read in
    real space projection operators read in
  non local Contribution for L=           1  read in
    real space projection operators read in
    PAW grid and wavefunctions read in
 
   number of l-projection  operators is LMAX  =           4
   number of lm-projection operators is LMMAX =           8
 
 POTCAR:    PAW_PBE N 08Apr2002                   
   VRHFIN =N: s2p3                                                              
   LEXCH  = PE                                                                  
   EATOM  =   264.5486 eV,   19.4438 Ry                                         
                                                                                
   TITEL  = PAW_PBE N 08Apr2002                                                 
   LULTRA =        F    use ultrasoft PP ?                                      
   IUNSCR =        1    unscreen: 0-lin 1-nonlin 2-no                           
   RPACOR =    1.200    partial core radius                                     
   POMASS =   14.001; ZVAL   =    5.000    mass and valenz                      
   RCORE  =    1.500    outmost cutoff radius                                   
   RWIGS  =    1.400; RWIGS  =    0.741    wigner-seitz radius (au A)           
   ENMAX  =  400.000; ENMIN  =  300.000 eV                                      
   ICORE  =        2    local potential                                         
   LCOR   =        T    correct aug charges                                     
   LPAW   =        T    paw PP                                                  
   EAUG   =  627.112                                                            
   DEXC   =    0.000                                                            
   RMAX   =    1.529    core radius for proj-oper                               
   RAUG   =    1.300    factor for augmentation sphere                          
   RDEP   =    1.514    radius for radial grids                                 
   RDEPT  =    1.338    core radius for aug-charge                              
                                                                                
   Atomic configuration                                                         
    4 entries                                                                   
     n  l   j            E        occ.                                          
     1  0  0.50      -384.7179   2.0000                                         
     2  0  0.50       -18.5828   2.0000                                         
     2  1  0.50        -7.0898   3.0000                                         
     3  2  1.50        -6.8029   0.0000                                         
   Description                                                                  
     l       E           TYP  RCUT    TYP  RCUT                                 
     0    -18.5828119     23  1.200                                             
     0    -13.5018863     23  1.200                                             
     1     -7.0897853     23  1.500                                             
     1      9.5240782     23  1.500                                             
     2     -6.8029130      7  1.500                                             
  local pseudopotential read in
  partial core-charges read in
  partial kinetic energy density read in
  atomic valenz-charges read in
  non local Contribution for L=           0  read in
    real space projection operators read in
  non local Contribution for L=           0  read in
    real space projection operators read in
  non local Contribution for L=           1  read in
    real space projection operators read in
  non local Contribution for L=           1  read in
    real space projection operators read in
    PAW grid and wavefunctions read in
 
   number of l-projection  operators is LMAX  =           4
   number of lm-projection operators is LMMAX =           8
 
 Optimization of the real space projectors (new method)

 maximal supplied QI-value         = 34.20
 optimisation between [QCUT,QGAM] = [  9.92, 20.18] = [ 27.55,114.04] Ry 
 Optimized for a Real-space Cutoff    1.34 Angstroem

   l    n(q)    QCUT    max X(q) W(low)/X(q) W(high)/X(q)  e(spline) 
   0      8     9.919    19.460    0.16E-03    0.20E-03    0.36E-06
   0      8     9.919    12.209    0.16E-03    0.20E-03    0.35E-06
   1      8     9.919     4.655    0.19E-03    0.46E-03    0.40E-06
 Optimization of the real space projectors (new method)

 maximal supplied QI-value         = 25.13
 optimisation between [QCUT,QGAM] = [ 10.05, 20.36] = [ 28.30,116.06] Ry 
 Optimized for a Real-space Cutoff    1.51 Angstroem

   l    n(q)    QCUT    max X(q) W(low)/X(q) W(high)/X(q)  e(spline) 
   0      9    10.053   115.676    0.19E-03    0.21E-03    0.38E-06
   0      9    10.053    87.132    0.19E-03    0.21E-03    0.38E-06
   1      9    10.053     4.429    0.87E-04    0.11E-03    0.39E-06
   1      9    10.053     2.733    0.59E-04    0.62E-04    0.43E-06
 Optimization of the real space projectors (new method)

 maximal supplied QI-value         = 25.13
 optimisation between [QCUT,QGAM] = [ 10.05, 20.36] = [ 28.30,116.06] Ry 
 Optimized for a Real-space Cutoff    1.70 Angstroem

   l    n(q)    QCUT    max X(q) W(low)/X(q) W(high)/X(q)  e(spline) 
   0     10    10.053    79.467    0.61E-04    0.98E-04    0.61E-06
   0     10    10.053    66.151    0.60E-04    0.98E-04    0.61E-06
   1     10    10.053     8.350    0.17E-03    0.71E-03    0.45E-05
   1     10    10.053     5.531    0.18E-03    0.77E-03    0.49E-05
  PAW_PBE H 15Jun2001                   :
 energy of atom  1       EATOM=  -12.4884
 kinetic energy error for atom=    0.0098 (will be added to EATOM!!)
  PAW_PBE C 08Apr2002                   :
 energy of atom  2       EATOM= -147.1560
 kinetic energy error for atom=    0.0288 (will be added to EATOM!!)
  PAW_PBE N 08Apr2002                   :
 energy of atom  3       EATOM= -264.5486
 kinetic energy error for atom=    0.0736 (will be added to EATOM!!)
 
 
 POSCAR: AutoCreatByScript: H C N                
  positions in direct lattice
  No initial velocities read in
 exchange correlation table for  LEXCH =        8
   RHO(1)=    0.500       N(1)  =     2000
   RHO(2)=  100.500       N(2)  =     4000

 VTST: version 3.1, (03/28/14)

 CHAIN: initializing optimizer
 
 OPT: Using VASP Conjugate-Gradient optimizer
 CHAIN: Read ICHAIN            0
 
 POSCAR: AutoCreatByScript: H C N                
  positions in direct lattice
  No initial velocities read in
 


--------------------------------------------------------------------------------------------------------


 ion  position               nearest neighbor table
   1  0.274  0.490  0.520-   6 1.09
   2  0.379  0.700  0.522-   7 1.09
   3  0.424  0.307  0.525-   8 1.10
   4  0.631  0.715  0.526-   9 1.10
   5  0.766  0.522  0.529-  10 1.10
   6  0.383  0.502  0.525-   1 1.09   7 1.40   8 1.40
   7  0.441  0.618  0.527-   2 1.09   6 1.40   9 1.40
   8  0.466  0.400  0.527-   3 1.10  11 1.36   6 1.40
   9  0.580  0.626  0.528-   4 1.10   7 1.40  10 1.40
  10  0.656  0.519  0.529-   5 1.10  11 1.35   9 1.40
  11  0.602  0.406  0.531-  10 1.35   8 1.36
 
  LATTYP: Found a simple orthorhombic cell.
 ALAT       =    10.0000000000
 B/A-ratio  =     1.1000000000
 C/A-ratio  =     1.2000000000
  
  Lattice vectors:
  
 A1 = (  10.0000000000,   0.0000000000,   0.0000000000)
 A2 = (   0.0000000000,  11.0000000000,   0.0000000000)
 A3 = (   0.0000000000,   0.0000000000,  12.0000000000)


Analysis of symmetry for initial positions (statically):
=====================================================================
 Subroutine PRICEL returns:
 Original cell was already a primitive cell.
 

 Routine SETGRP: Setting up the symmetry group for a 
 simple orthorhombic supercell.


 Subroutine GETGRP returns: Found  1 space group operations
 (whereof  1 operations were pure point group operations)
 out of a pool of  8 trial point group operations.


The static configuration has the point symmetry C_1 .


Analysis of symmetry for dynamics (positions and initial velocities):
=====================================================================
 Subroutine PRICEL returns:
 Original cell was already a primitive cell.
 

 Routine SETGRP: Setting up the symmetry group for a 
 simple orthorhombic supercell.


 Subroutine GETGRP returns: Found  1 space group operations
 (whereof  1 operations were pure point group operations)
 out of a pool of  8 trial point group operations.


The dynamic configuration has the point symmetry C_1 .


Analysis of constrained symmetry for selective dynamics:
=====================================================================
 Subroutine PRICEL returns:
 Original cell was already a primitive cell.
 

 Routine SETGRP: Setting up the symmetry group for a 
 simple orthorhombic supercell.


 Subroutine GETGRP returns: Found  1 space group operations
 (whereof  1 operations were pure point group operations)
 out of a pool of  8 trial point group operations.


The constrained configuration has the point symmetry C_1 .


Analysis of magnetic symmetry:
=====================================================================
 Subroutine PRICEL returns:
 Original cell was already a primitive cell.
 

 Subroutine MAGSYM returns: Found  1 space group operations
 (whereof  1 operations were pure point group operations)
 out of a pool of  1 trial space group operations
 (whereof  1 operations were pure point group operations)
 and found also     1 'primitive' translations


The magnetic configuration has the point symmetry C_1 .
 
 
 KPOINTS: mesh auto                               

Automatic generation of k-mesh.
Space group operators:
 irot       det(A)        alpha          n_x          n_y          n_z        tau_x        tau_y        tau_z
    1     1.000000     0.000001     1.000000     0.000000     0.000000     0.000000     0.000000     0.000000
 
 Subroutine IBZKPT returns following result:
 ===========================================
 
 Found      8 irreducible k-points:
 
 Following reciprocal coordinates:
            Coordinates               Weight
  0.000000  0.000000  0.000000      1.000000
  0.333333  0.000000  0.000000      2.000000
  0.000000  0.500000  0.000000      1.000000
  0.333333  0.500000  0.000000      2.000000
  0.000000  0.000000  0.500000      1.000000
  0.333333  0.000000  0.500000      2.000000
  0.000000  0.500000  0.500000      1.000000
  0.333333  0.500000  0.500000      2.000000
 
 Following cartesian coordinates:
            Coordinates               Weight
  0.000000  0.000000  0.000000      1.000000
  0.033333  0.000000  0.000000      2.000000
  0.000000  0.045455  0.000000      1.000000
  0.033333  0.045455  0.000000      2.000000
  0.000000  0.000000  0.041667      1.000000
  0.033333  0.000000  0.041667      2.000000
  0.000000  0.045455  0.041667      1.000000
  0.033333  0.045455  0.041667      2.000000
 


--------------------------------------------------------------------------------------------------------




 Dimension of arrays:
   k-points           NKPTS =      8   k-points in BZ     NKDIM =      8   number of bands    NBANDS=     32
   number of dos      NEDOS =    301   number of ions     NIONS =     11
   non local maximal  LDIM  =      4   non local SUM 2l+1 LMDIM =      8
   total plane-waves  NPLWV = 403200
   max r-space proj   IRMAX =   6312   max aug-charges    IRDMAX=   3958
   dimension x,y,z NGX =    70 NGY =   72 NGZ =   80
   dimension x,y,z NGXF=   140 NGYF=  144 NGZF=  160
   support grid    NGXF=   140 NGYF=  144 NGZF=  160
   ions per type =               5   5   1
 NGX,Y,Z   is equivalent  to a cutoff of  11.64, 10.88, 11.08 a.u.
 NGXF,Y,Z  is equivalent  to a cutoff of  23.27, 21.76, 22.17 a.u.


 I would recommend the setting:
   dimension x,y,z NGX =    65 NGY =   72 NGZ =   78
 SYSTEM =  CeO2                                    
 POSCAR =  AutoCreatByScript: H C N                

 Startparameter for this run:
   NWRITE =      2    write-flag & timer
   PREC   = accura    normal or accurate (medium, high low for compatibility)
   ISTART =      0    job   : 0-new  1-cont  2-samecut
   ICHARG =      2    charge: 1-file 2-atom 10-const
   ISPIN  =      2    spin polarized calculation?
   LNONCOLLINEAR =      F non collinear calculations
   LSORBIT =      F    spin-orbit coupling
   INIWAV =      1    electr: 0-lowe 1-rand  2-diag
   LASPH  =      F    aspherical Exc in radial PAW
   METAGGA=      F    non-selfconsistent MetaGGA calc.

 Electronic Relaxation 1
   ENCUT  =  400.0 eV  29.40 Ry    5.42 a.u.  16.31 17.94 19.57*2*pi/ulx,y,z
   ENINI  =  400.0     initial cutoff
   ENAUG  =  644.9 eV  augmentation charge cutoff
   NELM   =    150;   NELMIN=  2; NELMDL= -5     # of ELM steps 
   EDIFF  = 0.1E-04   stopping-criterion for ELM
   LREAL  =      T    real-space projection
   NLSPLINE    = F    spline interpolate recip. space projectors
   LCOMPAT=      F    compatible to vasp.4.4
   GGA_COMPAT  = T    GGA compatible to vasp.4.4-vasp.4.6
   LMAXPAW     = -100 max onsite density
   LMAXMIX     =    4 max onsite mixed and CHGCAR
   VOSKOWN=      0    Vosko Wilk Nusair interpolation
   ROPT   =   -0.00025  -0.00025  -0.00025
 Ionic relaxation
   EDIFFG = -.5E-01   stopping-criterion for IOM
   NSW    =    500    number of steps for IOM
   NBLOCK =      1;   KBLOCK =    500    inner block; outer block 
   IBRION =      2    ionic relax: 0-MD 1-quasi-New 2-CG
   NFREE  =      1    steps in history (QN), initial steepest desc. (CG)
   ISIF   =      2    stress and relaxation
   IWAVPR =     11    prediction:  0-non 1-charg 2-wave 3-comb
   ISYM   =      2    0-nonsym 1-usesym 2-fastsym
   LCORR  =      T    Harris-Foulkes like correction to forces

   POTIM  = 0.5000    time-step for ionic-motion
   TEIN   =    0.0    initial temperature
   TEBEG  =    0.0;   TEEND  =   0.0 temperature during run
   SMASS  =  -3.00    Nose mass-parameter (am)
   estimated Nose-frequenzy (Omega)   =  0.10E-29 period in steps =****** mass=  -0.229E-26a.u.
   SCALEE = 1.0000    scale energy and forces
   NPACO  =    256;   APACO  = 16.0  distance and # of slots for P.C.
   PSTRESS=    0.0 pullay stress

  Mass of Ions in am
   POMASS =   1.00 12.01 14.00
  Ionic Valenz
   ZVAL   =   1.00  4.00  5.00
  Atomic Wigner-Seitz radii
   RWIGS  =  -1.00 -1.00 -1.00
  virtual crystal weights 
   VCA    =   1.00  1.00  1.00
   NELECT =      30.0000    total number of electrons
   NUPDOWN=      -1.0000    fix difference up-down

 DOS related values:
   EMIN   =  10.00;   EMAX   =-10.00  energy-range for DOS
   EFERMI =   0.00
   ISMEAR =     0;   SIGMA  =   0.05  broadening in eV -4-tet -1-fermi 0-gaus

 Electronic relaxation 2 (details)
   IALGO  =     58    algorithm
   LDIAG  =      T    sub-space diagonalisation (order eigenvalues)
   LSUBROT=      F    optimize rotation matrix (better conditioning)
   TURBO    =      0    0=normal 1=particle mesh
   IRESTART =      0    0=no restart 2=restart with 2 vectors
   NREBOOT  =      0    no. of reboots
   NMIN     =      0    reboot dimension
   EREF     =   0.00    reference energy to select bands
   IMIX   =      4    mixing-type and parameters
     AMIX     =   0.20;   BMIX     =  0.00
     AMIX_MAG =   0.80;   BMIX_MAG =  0.00
     AMIN     =   0.10
     WC   =   100.;   INIMIX=   1;  MIXPRE=   1;  MAXMIX= -45

 Intra band minimization:
   WEIMIN = 0.0010     energy-eigenvalue tresh-hold
   EBREAK =  0.78E-07  absolut break condition
   DEPER  =   0.30     relativ break condition  

   TIME   =   0.40     timestep for ELM

  volume/ion in A,a.u.               =     120.00       809.80
  Fermi-wavevector in a.u.,A,eV,Ry     =   0.463722  0.876307  2.925765  0.215038
  Thomas-Fermi vector in A             =   1.452053
 
 Write flags
   LWAVE  =      F    write WAVECAR
   LCHARG =      F    write CHGCAR
   LVTOT  =      F    write LOCPOT, total local potential
   LVHAR  =      F    write LOCPOT, Hartree potential only
   LELF   =      F    write electronic localiz. function (ELF)
   LORBIT =      0    0 simple, 1 ext, 2 COOP (PROOUT)


 Dipole corrections
   LMONO  =      F    monopole corrections only (constant potential shift)
   LDIPOL =      F    correct potential (dipole corrections)
   IDIPOL =      0    1-x, 2-y, 3-z, 4-all directions 
   EPSILON=  1.0000000 bulk dielectric constant

 LDA+U is selected, type is set to LDAUTYPE =  2
   angular momentum for each species LDAUL =    -1   -1   -1
   U (eV)           for each species LDAUU =   0.0  0.0  0.0
   J (eV)           for each species LDAUJ =   0.0  0.0  0.0
 Exchange correlation treatment:
   GGA     =    PE    GGA type
   LEXCH   =     8    internal setting for exchange type
   VOSKOWN=      0    Vosko Wilk Nusair interpolation
   LHFCALC =     F    Hartree Fock is set to
   LHFONE  =     F    Hartree Fock one center treatment
   AEXX    =    0.0000 exact exchange contribution

 Linear response parameters
   LEPSILON=     F    determine dielectric tensor
   LRPA    =     F    only Hartree local field effects (RPA)
   LNABLA  =     F    use nabla operator in PAW spheres
   LVEL    =     F    velocity operator in full k-point grid
   LINTERFAST=   F  fast interpolation
   KINTER  =     0    interpolate to denser k-point grid
   CSHIFT  =0.1000    complex shift for real part using Kramers Kronig
   OMEGAMAX=  -1.0    maximum frequency
   DEG_THRESHOLD= 0.2000000E-02 threshold for treating states as degnerate
   RTIME   =    0.100 relaxation time in fs

 Orbital magnetization related:
   ORBITALMAG=     F  switch on orbital magnetization
   LCHIMAG   =     F  perturbation theory with respect to B field
   DQ        =  0.001000  dq finite difference perturbation B field



--------------------------------------------------------------------------------------------------------


 conjugate gradient relaxation of ions
   using selective dynamics as specified on POSCAR
 charge density and potential will be updated during run
 spin polarized calculation
 Conjugate gradient for all bands (Freysoldt, et al. PRB 79, 241103 (2009))
 preconditioned conjugated gradient                                        
 perform sub-space diagonalisation
    before iterative eigenvector-optimisation
 modified Broyden-mixing scheme, WC =      100.0
 initial mixing is a Kerker type mixing with AMIX =  0.2000 and BMIX =      0.0001
 Hartree-type preconditioning will be used
 using additional bands           17
 real space projection scheme for non local part
 use partial core corrections
 no Harris-corrections to forces 
 use gradient corrections 
 use of overlap-Matrix (Vanderbilt PP)
 Gauss-broadening in eV      SIGMA  =   0.05


--------------------------------------------------------------------------------------------------------


  energy-cutoff  :      400.00
  volume of cell :     1320.00
      direct lattice vectors                 reciprocal lattice vectors
    10.000000000  0.000000000  0.000000000     0.100000000  0.000000000  0.000000000
     0.000000000 11.000000000  0.000000000     0.000000000  0.090909091  0.000000000
     0.000000000  0.000000000 12.000000000     0.000000000  0.000000000  0.083333333

  length of vectors
    10.000000000 11.000000000 12.000000000     0.100000000  0.090909091  0.083333333


 
 k-points in units of 2pi/SCALE and weight: mesh auto                               
   0.00000000  0.00000000  0.00000000       0.083
   0.03333333  0.00000000  0.00000000       0.167
   0.00000000  0.04545455  0.00000000       0.083
   0.03333333  0.04545455  0.00000000       0.167
   0.00000000  0.00000000  0.04166667       0.083
   0.03333333  0.00000000  0.04166667       0.167
   0.00000000  0.04545455  0.04166667       0.083
   0.03333333  0.04545455  0.04166667       0.167
 
 k-points in reciprocal lattice and weights: mesh auto                               
   0.00000000  0.00000000  0.00000000       0.083
   0.33333333  0.00000000  0.00000000       0.167
   0.00000000  0.50000000  0.00000000       0.083
   0.33333333  0.50000000  0.00000000       0.167
   0.00000000  0.00000000  0.50000000       0.083
   0.33333333  0.00000000  0.50000000       0.167
   0.00000000  0.50000000  0.50000000       0.083
   0.33333333  0.50000000  0.50000000       0.167
 
 position of ions in fractional coordinates (direct lattice) 
   0.27405731  0.49002279  0.52030545
   0.37914836  0.69965622  0.52239577
   0.42367145  0.30714169  0.52467372
   0.63070630  0.71506618  0.52580011
   0.76593995  0.52233725  0.52939117
   0.38250810  0.50174088  0.52509696
   0.44066835  0.61753974  0.52669302
   0.46630036  0.39952466  0.52671254
   0.58041132  0.62636934  0.52768904
   0.65604879  0.51898279  0.52930687
   0.60167407  0.40619848  0.53075268
 
 position of ions in cartesian coordinates  (Angst):
   2.74057307  5.39025071  6.24366542
   3.79148357  7.69621845  6.26874923
   4.23671454  3.37855864  6.29608468
   6.30706301  7.86572797  6.30960134
   7.65939952  5.74570972  6.35269407
   3.82508098  5.51914965  6.30116355
   4.40668353  6.79293709  6.32031621
   4.66300359  4.39477125  6.32055054
   5.80411325  6.89006272  6.33226847
   6.56048790  5.70881070  6.35168247
   6.01674071  4.46818327  6.36903220
 


--------------------------------------------------------------------------------------------------------


 k-point  1 :   0.0000 0.0000 0.0000  plane waves:   23957
 k-point  2 :   0.3333 0.0000 0.0000  plane waves:   23984
 k-point  3 :   0.0000 0.5000 0.0000  plane waves:   23980
 k-point  4 :   0.3333 0.5000 0.0000  plane waves:   23960
 k-point  5 :   0.0000 0.0000 0.5000  plane waves:   23972
 k-point  6 :   0.3333 0.0000 0.5000  plane waves:   23912
 k-point  7 :   0.0000 0.5000 0.5000  plane waves:   24024
 k-point  8 :   0.3333 0.5000 0.5000  plane waves:   23980

 maximum and minimum number of plane-waves per node :      2034     1948

 maximum number of plane-waves:     24024
 maximum index in each direction: 
   IXMAX=   16   IYMAX=   17   IZMAX=   19
   IXMIN=  -16   IYMIN=  -18   IZMIN=  -20

 NGX is ok and might be reduce to  66
 NGY is ok and might be reduce to  72
 NGZ is ok and might be reduce to  80

 real space projection operators:
  total allocation   :       2294.58 KBytes
  max/ min on nodes  :        203.73        177.46


 parallel 3D FFT for wavefunctions:
    minimum data exchange during FFTs selected (reduces bandwidth)
 parallel 3D FFT for charge:
    minimum data exchange during FFTs selected (reduces bandwidth)


 total amount of memory used by VASP on root node    47065. kBytes
========================================================================

   base      :      30000. kBytes
   nonlr-proj:       1427. kBytes
   fftplans  :       2493. kBytes
   grid      :       6875. kBytes
   one-center:          6. kBytes
   wavefun   :       6264. kBytes
 
     INWAV:  cpu time    0.0001: real time    0.0002
 Broyden mixing: mesh for mixing (old mesh)
   NGX = 33   NGY = 35   NGZ = 39
  (NGX  =140   NGY  =144   NGZ  =160)
  gives a total of  45045 points

 initial charge density was supplied:
 charge density of overlapping atoms calculated
 number of electron      30.0000000 magnetization      11.0000000
 keeping initial charge density in first step


--------------------------------------------------------------------------------------------------------


 Maximum index for non-local projection operator          577
 Maximum index for augmentation-charges          219 (set IRDMAX)


--------------------------------------------------------------------------------------------------------


 First call to EWALD:  gamma=   0.162
 Maximum number of real-space cells 3x 3x 3
 Maximum number of reciprocal cells 3x 3x 3

 FEWALD executed in parallel
    FEWALD:  cpu time    0.0024: real time    0.0041


----------------------------------------- Iteration    1(   1)  ---------------------------------------


    POTLOK:  cpu time    0.1116: real time    0.1500
    SETDIJ:  cpu time    0.0242: real time    0.0298
    TRIAL :  cpu time    0.6488: real time    0.9268
    CORREC:  cpu time    0.0006: real time    0.0012
    --------------------------------------------
      LOOP:  cpu time    0.7887: real time    1.1137

 eigenvalue-minimisations  :  1280
 total energy-change (2. order) : 0.1756756E+03  (-0.7950472E+03)
 number of electron      30.0000000 magnetization      11.0000000
 augmentation part       30.0000000 magnetization      11.0000000

 Free energy of the ion-electron system (eV)
  ---------------------------------------------------
  alpha Z        PSCENC =         3.10030519
  Ewald energy   TEWEN  =      1223.59192900
  -Hartree energ DENC   =     -1958.99432718
  -exchange      EXHF   =         0.00000000
  -V(xc)+E(xc)   XCENC  =        98.17600648
  PAW double counting   =       755.73690237     -759.76635754
  entropy T*S    EENTRO =        -0.00762410
  eigenvalues    EBANDS =      -248.66556028
  atomic energy  EATOM  =      1062.50428510
  ---------------------------------------------------
  free energy    TOTEN  =       175.67555905 eV

  energy without entropy =      175.68318315  energy(sigma->0) =      175.67937110


--------------------------------------------------------------------------------------------------------




----------------------------------------- Iteration    1(   2)  ---------------------------------------


    TRIAL :  cpu time    0.6403: real time    0.6423
    CORREC:  cpu time    0.0001: real time    0.0001
    --------------------------------------------
      LOOP:  cpu time    0.6418: real time    0.6460

 eigenvalue-minimisations  :  1688
 total energy-change (2. order) :-0.1909828E+03  (-0.1771021E+03)
 number of electron      30.0000000 magnetization      11.0000000
 augmentation part       30.0000000 magnetization      11.0000000

 Free energy of the ion-electron system (eV)
  ---------------------------------------------------
  alpha Z        PSCENC =         3.10030519
  Ewald energy   TEWEN  =      1223.59192900
  -Hartree energ DENC   =     -1958.99432718
  -exchange      EXHF   =         0.00000000
  -V(xc)+E(xc)   XCENC  =        98.17600648
  PAW double counting   =       755.73690237     -759.76635754
  entropy T*S    EENTRO =        -0.00000000
  eigenvalues    EBANDS =      -439.65600702
  atomic energy  EATOM  =      1062.50428510
  ---------------------------------------------------
  free energy    TOTEN  =       -15.30726359 eV

  energy without entropy =      -15.30726359  energy(sigma->0) =      -15.30726359


--------------------------------------------------------------------------------------------------------




----------------------------------------- Iteration    1(   3)  ---------------------------------------


    TRIAL :  cpu time    0.5766: real time    0.5786
    CORREC:  cpu time    0.0001: real time    0.0001
    --------------------------------------------
      LOOP:  cpu time    0.5773: real time    0.5805

 eigenvalue-minimisations  :  1408
 total energy-change (2. order) :-0.4933710E+02  (-0.4904019E+02)
 number of electron      30.0000000 magnetization      11.0000000
 augmentation part       30.0000000 magnetization      11.0000000

 Free energy of the ion-electron system (eV)
  ---------------------------------------------------
  alpha Z        PSCENC =         3.10030519
  Ewald energy   TEWEN  =      1223.59192900
  -Hartree energ DENC   =     -1958.99432718
  -exchange      EXHF   =         0.00000000
  -V(xc)+E(xc)   XCENC  =        98.17600648
  PAW double counting   =       755.73690237     -759.76635754
  entropy T*S    EENTRO =        -0.00000000
  eigenvalues    EBANDS =      -488.99310595
  atomic energy  EATOM  =      1062.50428510
  ---------------------------------------------------
  free energy    TOTEN  =       -64.64436252 eV

  energy without entropy =      -64.64436252  energy(sigma->0) =      -64.64436252


--------------------------------------------------------------------------------------------------------




----------------------------------------- Iteration    1(   4)  ---------------------------------------


    TRIAL :  cpu time    0.5378: real time    0.5399
    CORREC:  cpu time    0.0001: real time    0.0001
    --------------------------------------------
      LOOP:  cpu time    0.5385: real time    0.5420

 eigenvalue-minimisations  :  1344
 total energy-change (2. order) :-0.1998898E+01  (-0.1991869E+01)
 number of electron      30.0000000 magnetization      11.0000000
 augmentation part       30.0000000 magnetization      11.0000000

 Free energy of the ion-electron system (eV)
  ---------------------------------------------------
  alpha Z        PSCENC =         3.10030519
  Ewald energy   TEWEN  =      1223.59192900
  -Hartree energ DENC   =     -1958.99432718
  -exchange      EXHF   =         0.00000000
  -V(xc)+E(xc)   XCENC  =        98.17600648
  PAW double counting   =       755.73690237     -759.76635754
  entropy T*S    EENTRO =        -0.00000000
  eigenvalues    EBANDS =      -490.99200366
  atomic energy  EATOM  =      1062.50428510
  ---------------------------------------------------
  free energy    TOTEN  =       -66.64326023 eV

  energy without entropy =      -66.64326023  energy(sigma->0) =      -66.64326023


--------------------------------------------------------------------------------------------------------




----------------------------------------- Iteration    1(   5)  ---------------------------------------


    TRIAL :  cpu time    0.5511: real time    0.5531
    CORREC:  cpu time    0.0001: real time    0.0001
    CHARGE:  cpu time    0.0337: real time    0.0484
    --------------------------------------------
      LOOP:  cpu time    0.5857: real time    0.6037

 eigenvalue-minimisations  :  1456
 total energy-change (2. order) :-0.3765880E-01  (-0.3763050E-01)
 number of electron      29.9999996 magnetization      -0.0000001
 augmentation part        0.8798366 magnetization       0.0129252

 Free energy of the ion-electron system (eV)
  ---------------------------------------------------
  alpha Z        PSCENC =         3.10030519
  Ewald energy   TEWEN  =      1223.59192900
  -Hartree energ DENC   =     -1958.99432718
  -exchange      EXHF   =         0.00000000
  -V(xc)+E(xc)   XCENC  =        98.17600648
  PAW double counting   =       755.73690237     -759.76635754
  entropy T*S    EENTRO =        -0.00000000
  eigenvalues    EBANDS =      -491.02966246
  atomic energy  EATOM  =      1062.50428510
  ---------------------------------------------------
  free energy    TOTEN  =       -66.68091903 eV

  energy without entropy =      -66.68091903  energy(sigma->0) =      -66.68091903


--------------------------------------------------------------------------------------------------------




----------------------------------------- Iteration    1(   6)  ---------------------------------------


    POTLOK:  cpu time    0.0638: real time    0.0640
    SETDIJ:  cpu time    0.0034: real time    0.0034
    TRIAL :  cpu time    0.3057: real time    0.3572
    CORREC:  cpu time    0.1801: real time    0.1886
    CHARGE:  cpu time    0.0205: real time    0.0206
    --------------------------------------------
      LOOP:  cpu time    0.5746: real time    0.6363

 eigenvalue-minimisations  :     0
 total energy-change (2. order) : 0.4547592E+01  (-0.6881271E+01)
 number of electron      29.9999996 magnetization      -0.0000000
 augmentation part        0.7916058 magnetization       0.0084827

 Free energy of the ion-electron system (eV)
  ---------------------------------------------------
  alpha Z        PSCENC =         3.10030519
  Ewald energy   TEWEN  =      1223.59192900
  -Hartree energ DENC   =     -2233.06540112
  -exchange      EXHF   =         0.00000000
  -V(xc)+E(xc)   XCENC  =       106.70309960
  PAW double counting   =      2573.78628557    -2579.42610906
  entropy T*S    EENTRO =        -0.00000000
  eigenvalues    EBANDS =      -219.32772161
  atomic energy  EATOM  =      1062.50428510
  ---------------------------------------------------
  free energy    TOTEN  =       -62.13332733 eV

  energy without entropy =      -62.13332733  energy(sigma->0) =      -62.13332733


--------------------------------------------------------------------------------------------------------




----------------------------------------- Iteration    1(   7)  ---------------------------------------


    POTLOK:  cpu time    0.0576: real time    0.0578
    SETDIJ:  cpu time    0.0033: real time    0.0034
    TRIAL :  cpu time    0.3082: real time    0.3106
    CORREC:  cpu time    0.1617: real time    0.1622
    CHARGE:  cpu time    0.0196: real time    0.0197
    --------------------------------------------
      LOOP:  cpu time    0.5514: real time    0.5561

 eigenvalue-minimisations  :     0
 total energy-change (2. order) :-0.6907331E+01  (-0.1453733E+01)
 number of electron      29.9999996 magnetization      -0.0000000
 augmentation part        0.7677812 magnetization      -0.0009926

 Free energy of the ion-electron system (eV)
  ---------------------------------------------------
  alpha Z        PSCENC =         3.10030519
  Ewald energy   TEWEN  =      1223.59192900
  -Hartree energ DENC   =     -2099.45107341
  -exchange      EXHF   =         0.00000000
  -V(xc)+E(xc)   XCENC  =       101.80807841
  PAW double counting   =      2586.49621993    -2591.51426968
  entropy T*S    EENTRO =        -0.00000000
  eigenvalues    EBANDS =      -355.57613319
  atomic energy  EATOM  =      1062.50428510
  ---------------------------------------------------
  free energy    TOTEN  =       -69.04065865 eV

  energy without entropy =      -69.04065865  energy(sigma->0) =      -69.04065865


--------------------------------------------------------------------------------------------------------




----------------------------------------- Iteration    1(   8)  ---------------------------------------


    POTLOK:  cpu time    0.0587: real time    0.0589
    SETDIJ:  cpu time    0.0032: real time    0.0032
    TRIAL :  cpu time    0.2566: real time    0.2579
    CORREC:  cpu time    0.1578: real time    0.1583
    CHARGE:  cpu time    0.0194: real time    0.0195
    --------------------------------------------
      LOOP:  cpu time    0.4968: real time    0.5003

 eigenvalue-minimisations  :     0
 total energy-change (2. order) :-0.1463448E+01  (-0.5092950E+00)
 number of electron      29.9999995 magnetization      -0.0000000
 augmentation part        0.7714924 magnetization      -0.0055902

 Free energy of the ion-electron system (eV)
  ---------------------------------------------------
  alpha Z        PSCENC =         3.10030519
  Ewald energy   TEWEN  =      1223.59192900
  -Hartree energ DENC   =     -2099.17991788
  -exchange      EXHF   =         0.00000000
  -V(xc)+E(xc)   XCENC  =       102.02451593
  PAW double counting   =      2652.57018536    -2657.45548478
  entropy T*S    EENTRO =        -0.00000000
  eigenvalues    EBANDS =      -357.65992421
  atomic energy  EATOM  =      1062.50428510
  ---------------------------------------------------
  free energy    TOTEN  =       -70.50410630 eV

  energy without entropy =      -70.50410630  energy(sigma->0) =      -70.50410630


--------------------------------------------------------------------------------------------------------




----------------------------------------- Iteration    1(   9)  ---------------------------------------


    POTLOK:  cpu time    0.0586: real time    0.0590
    SETDIJ:  cpu time    0.0032: real time    0.0032
    TRIAL :  cpu time    0.2589: real time    0.2600
    CORREC:  cpu time    0.2100: real time    0.2107
    CHARGE:  cpu time    0.0194: real time    0.0195
    --------------------------------------------
      LOOP:  cpu time    0.5511: real time    0.5542

 eigenvalue-minimisations  :     0
 total energy-change (2. order) :-0.5076087E+00  (-0.1478617E+00)
 number of electron      29.9999995 magnetization      -0.0000000
 augmentation part        0.7737879 magnetization      -0.0052754

 Free energy of the ion-electron system (eV)
  ---------------------------------------------------
  alpha Z        PSCENC =         3.10030519
  Ewald energy   TEWEN  =      1223.59192900
  -Hartree energ DENC   =     -2095.44246844
  -exchange      EXHF   =         0.00000000
  -V(xc)+E(xc)   XCENC  =       101.94790247
  PAW double counting   =      2664.65460347    -2669.51639348
  entropy T*S    EENTRO =        -0.00000000
  eigenvalues    EBANDS =      -361.85187833
  atomic energy  EATOM  =      1062.50428510
  ---------------------------------------------------
  free energy    TOTEN  =       -71.01171502 eV

  energy without entropy =      -71.01171502  energy(sigma->0) =      -71.01171502


--------------------------------------------------------------------------------------------------------




----------------------------------------- Iteration    1(  10)  ---------------------------------------


    POTLOK:  cpu time    0.0591: real time    0.0593
    SETDIJ:  cpu time    0.0032: real time    0.0032
    TRIAL :  cpu time    0.2597: real time    0.2609
    CORREC:  cpu time    0.1628: real time    0.1661
    CHARGE:  cpu time    0.0186: real time    0.0189
    --------------------------------------------
      LOOP:  cpu time    0.5044: real time    0.5108

 eigenvalue-minimisations  :     0
 total energy-change (2. order) :-0.1475479E+00  (-0.4460192E-01)
 number of electron      29.9999995 magnetization       0.0000000
 augmentation part        0.7742588 magnetization      -0.0032465

 Free energy of the ion-electron system (eV)
  ---------------------------------------------------
  alpha Z        PSCENC =         3.10030519
  Ewald energy   TEWEN  =      1223.59192900
  -Hartree energ DENC   =     -2093.15470147
  -exchange      EXHF   =         0.00000000
  -V(xc)+E(xc)   XCENC  =       101.89529320
  PAW double counting   =      2644.53853861    -2649.40848484
  entropy T*S    EENTRO =        -0.00000000
  eigenvalues    EBANDS =      -364.22642772
  atomic energy  EATOM  =      1062.50428510
  ---------------------------------------------------
  free energy    TOTEN  =       -71.15926293 eV

  energy without entropy =      -71.15926293  energy(sigma->0) =      -71.15926293


--------------------------------------------------------------------------------------------------------




----------------------------------------- Iteration    1(  11)  ---------------------------------------


    POTLOK:  cpu time    0.0560: real time    0.0587
    SETDIJ:  cpu time    0.0031: real time    0.0032
    TRIAL :  cpu time    0.2520: real time    0.2637
    CORREC:  cpu time    0.1570: real time    0.1633
    CHARGE:  cpu time    0.0183: real time    0.0188
    --------------------------------------------
      LOOP:  cpu time    0.4876: real time    0.5102

 eigenvalue-minimisations  :     0
 total energy-change (2. order) :-0.4453667E-01  (-0.1425458E-01)
 number of electron      29.9999995 magnetization       0.0000000
 augmentation part        0.7737884 magnetization      -0.0014600

 Free energy of the ion-electron system (eV)
  ---------------------------------------------------
  alpha Z        PSCENC =         3.10030519
  Ewald energy   TEWEN  =      1223.59192900
  -Hartree energ DENC   =     -2092.80450074
  -exchange      EXHF   =         0.00000000
  -V(xc)+E(xc)   XCENC  =       101.87972367
  PAW double counting   =      2621.98028124    -2626.86533645
  entropy T*S    EENTRO =        -0.00000000
  eigenvalues    EBANDS =      -364.59048661
  atomic energy  EATOM  =      1062.50428510
  ---------------------------------------------------
  free energy    TOTEN  =       -71.20379960 eV

  energy without entropy =      -71.20379960  energy(sigma->0) =      -71.20379960


--------------------------------------------------------------------------------------------------------




----------------------------------------- Iteration    1(  12)  ---------------------------------------


    POTLOK:  cpu time    0.0574: real time    0.0602
    SETDIJ:  cpu time    0.0032: real time    0.0032
    TRIAL :  cpu time    0.2527: real time    0.2629
    CORREC:  cpu time    0.1568: real time    0.1624
    CHARGE:  cpu time    0.0211: real time    0.0211
    --------------------------------------------
      LOOP:  cpu time    0.4921: real time    0.5123

 eigenvalue-minimisations  :     0
 total energy-change (2. order) :-0.1423528E-01  (-0.4041655E-02)
 number of electron      29.9999995 magnetization       0.0000000
 augmentation part        0.7735215 magnetization      -0.0005176

 Free energy of the ion-electron system (eV)
  ---------------------------------------------------
  alpha Z        PSCENC =         3.10030519
  Ewald energy   TEWEN  =      1223.59192900
  -Hartree energ DENC   =     -2091.79934698
  -exchange      EXHF   =         0.00000000
  -V(xc)+E(xc)   XCENC  =       101.82331080
  PAW double counting   =      2607.40780287    -2612.29798225
  entropy T*S    EENTRO =        -0.00000000
  eigenvalues    EBANDS =      -365.54833860
  atomic energy  EATOM  =      1062.50428510
  ---------------------------------------------------
  free energy    TOTEN  =       -71.21803488 eV

  energy without entropy =      -71.21803488  energy(sigma->0) =      -71.21803488


--------------------------------------------------------------------------------------------------------




----------------------------------------- Iteration    1(  13)  ---------------------------------------


    POTLOK:  cpu time    0.0587: real time    0.0589
    SETDIJ:  cpu time    0.0031: real time    0.0031
    TRIAL :  cpu time    0.2530: real time    0.2542
    CORREC:  cpu time    0.1610: real time    0.1615
    CHARGE:  cpu time    0.0184: real time    0.0184
    --------------------------------------------
      LOOP:  cpu time    0.4952: real time    0.4984

 eigenvalue-minimisations  :     0
 total energy-change (2. order) :-0.4041042E-02  (-0.1136591E-02)
 number of electron      29.9999995 magnetization       0.0000000
 augmentation part        0.7734863 magnetization      -0.0000941

 Free energy of the ion-electron system (eV)
  ---------------------------------------------------
  alpha Z        PSCENC =         3.10030519
  Ewald energy   TEWEN  =      1223.59192900
  -Hartree energ DENC   =     -2091.43526922
  -exchange      EXHF   =         0.00000000
  -V(xc)+E(xc)   XCENC  =       101.80239153
  PAW double counting   =      2601.68452431    -2606.57573083
  entropy T*S    EENTRO =        -0.00000000
  eigenvalues    EBANDS =      -365.89451099
  atomic energy  EATOM  =      1062.50428510
  ---------------------------------------------------
  free energy    TOTEN  =       -71.22207592 eV

  energy without entropy =      -71.22207592  energy(sigma->0) =      -71.22207592


--------------------------------------------------------------------------------------------------------




----------------------------------------- Iteration    1(  14)  ---------------------------------------


    POTLOK:  cpu time    0.0571: real time    0.0574
    SETDIJ:  cpu time    0.0032: real time    0.0032
    TRIAL :  cpu time    0.2545: real time    0.2558
    CORREC:  cpu time    0.1605: real time    0.1610
    CHARGE:  cpu time    0.0214: real time    0.0214
    --------------------------------------------
      LOOP:  cpu time    0.4976: real time    0.5010

 eigenvalue-minimisations  :     0
 total energy-change (2. order) :-0.1136541E-02  (-0.3411368E-03)
 number of electron      29.9999995 magnetization       0.0000000
 augmentation part        0.7735904 magnetization       0.0000586

 Free energy of the ion-electron system (eV)
  ---------------------------------------------------
  alpha Z        PSCENC =         3.10030519
  Ewald energy   TEWEN  =      1223.59192900
  -Hartree energ DENC   =     -2091.46774447
  -exchange      EXHF   =         0.00000000
  -V(xc)+E(xc)   XCENC  =       101.80246013
  PAW double counting   =      2600.55384370    -2605.44564101
  entropy T*S    EENTRO =        -0.00000000
  eigenvalues    EBANDS =      -365.86265010
  atomic energy  EATOM  =      1062.50428510
  ---------------------------------------------------
  free energy    TOTEN  =       -71.22321246 eV

  energy without entropy =      -71.22321246  energy(sigma->0) =      -71.22321246


--------------------------------------------------------------------------------------------------------




----------------------------------------- Iteration    1(  15)  ---------------------------------------


    POTLOK:  cpu time    0.0609: real time    0.0612
    SETDIJ:  cpu time    0.0032: real time    0.0032
    TRIAL :  cpu time    0.2525: real time    0.2537
    CORREC:  cpu time    0.1593: real time    0.1598
    CHARGE:  cpu time    0.0184: real time    0.0184
    --------------------------------------------
      LOOP:  cpu time    0.4951: real time    0.4985

 eigenvalue-minimisations  :     0
 total energy-change (2. order) :-0.3411640E-03  (-0.9648508E-04)
 number of electron      29.9999995 magnetization       0.0000000
 augmentation part        0.7737242 magnetization       0.0000795

 Free energy of the ion-electron system (eV)
  ---------------------------------------------------
  alpha Z        PSCENC =         3.10030519
  Ewald energy   TEWEN  =      1223.59192900
  -Hartree energ DENC   =     -2091.43880580
  -exchange      EXHF   =         0.00000000
  -V(xc)+E(xc)   XCENC  =       101.80208253
  PAW double counting   =      2600.90553280    -2605.79729772
  entropy T*S    EENTRO =        -0.00000000
  eigenvalues    EBANDS =      -365.89158472
  atomic energy  EATOM  =      1062.50428510
  ---------------------------------------------------
  free energy    TOTEN  =       -71.22355362 eV

  energy without entropy =      -71.22355362  energy(sigma->0) =      -71.22355362


--------------------------------------------------------------------------------------------------------




----------------------------------------- Iteration    1(  16)  ---------------------------------------


    POTLOK:  cpu time    0.0592: real time    0.0594
    SETDIJ:  cpu time    0.0031: real time    0.0031
    TRIAL :  cpu time    0.2536: real time    0.2548
    CORREC:  cpu time    0.1602: real time    0.1606
    CHARGE:  cpu time    0.0211: real time    0.0212
    --------------------------------------------
      LOOP:  cpu time    0.4982: real time    0.5015

 eigenvalue-minimisations  :     0
 total energy-change (2. order) :-0.9646934E-04  (-0.2480395E-04)
 number of electron      29.9999995 magnetization       0.0000000
 augmentation part        0.7737730 magnetization       0.0000614

 Free energy of the ion-electron system (eV)
  ---------------------------------------------------
  alpha Z        PSCENC =         3.10030519
  Ewald energy   TEWEN  =      1223.59192900
  -Hartree energ DENC   =     -2091.47606907
  -exchange      EXHF   =         0.00000000
  -V(xc)+E(xc)   XCENC  =       101.80393894
  PAW double counting   =      2601.69399296    -2606.58579491
  entropy T*S    EENTRO =        -0.00000000
  eigenvalues    EBANDS =      -365.85623731
  atomic energy  EATOM  =      1062.50428510
  ---------------------------------------------------
  free energy    TOTEN  =       -71.22365009 eV

  energy without entropy =      -71.22365009  energy(sigma->0) =      -71.22365009


--------------------------------------------------------------------------------------------------------




----------------------------------------- Iteration    1(  17)  ---------------------------------------


    POTLOK:  cpu time    0.0600: real time    0.0602
    SETDIJ:  cpu time    0.0033: real time    0.0033
    TRIAL :  cpu time    0.2540: real time    0.2552
    CORREC:  cpu time    0.1608: real time    0.1612
    CHARGE:  cpu time    0.0182: real time    0.0183
    --------------------------------------------
      LOOP:  cpu time    0.4972: real time    0.5004

 eigenvalue-minimisations  :     0
 total energy-change (2. order) :-0.2474955E-04  (-0.6853705E-05)
 number of electron      29.9999995 magnetization       0.0000000
 augmentation part        0.7737931 magnetization       0.0000434

 Free energy of the ion-electron system (eV)
  ---------------------------------------------------
  alpha Z        PSCENC =         3.10030519
  Ewald energy   TEWEN  =      1223.59192900
  -Hartree energ DENC   =     -2091.50552745
  -exchange      EXHF   =         0.00000000
  -V(xc)+E(xc)   XCENC  =       101.80506960
  PAW double counting   =      2602.31910818    -2607.21086534
  entropy T*S    EENTRO =        -0.00000000
  eigenvalues    EBANDS =      -365.82797913
  atomic energy  EATOM  =      1062.50428510
  ---------------------------------------------------
  free energy    TOTEN  =       -71.22367484 eV

  energy without entropy =      -71.22367484  energy(sigma->0) =      -71.22367484


--------------------------------------------------------------------------------------------------------




----------------------------------------- Iteration    1(  18)  ---------------------------------------


    POTLOK:  cpu time    0.0599: real time    0.0601
    SETDIJ:  cpu time    0.0031: real time    0.0031
    TRIAL :  cpu time    0.2526: real time    0.2540
    CORREC:  cpu time    0.1599: real time    0.1604
    CHARGE:  cpu time    0.0182: real time    0.0183
    --------------------------------------------
      LOOP:  cpu time    0.4948: real time    0.4981

 eigenvalue-minimisations  :     0
 total energy-change (2. order) :-0.6819500E-05  (-0.2051798E-05)
 number of electron      29.9999995 magnetization       0.0000000
 augmentation part        0.7737925 magnetization       0.0000290

 Free energy of the ion-electron system (eV)
  ---------------------------------------------------
  alpha Z        PSCENC =         3.10030519
  Ewald energy   TEWEN  =      1223.59192900
  -Hartree energ DENC   =     -2091.52353919
  -exchange      EXHF   =         0.00000000
  -V(xc)+E(xc)   XCENC  =       101.80569507
  PAW double counting   =      2602.70470014    -2607.59640715
  entropy T*S    EENTRO =        -0.00000000
  eigenvalues    EBANDS =      -365.81064983
  atomic energy  EATOM  =      1062.50428510
  ---------------------------------------------------
  free energy    TOTEN  =       -71.22368166 eV

  energy without entropy =      -71.22368166  energy(sigma->0) =      -71.22368166


--------------------------------------------------------------------------------------------------------


  average scaling for gradient   1.3879


 average (electrostatic) potential at core
  the test charge radii are     0.5201  0.6991  0.7089
  (the norm of the test charge is              1.0000)
       1 -42.0904       2 -42.1785       3 -41.8126       4 -42.0539       5 -41.8411
       6 -58.8323       7 -59.0337       8 -59.3249       9 -58.8333      10 -59.3245
      11 -72.9899
 
 
 
 E-fermi :  -5.2932     XC(G=0):  -1.1929     alpha+bet : -0.5500


 spin component 1

 k-point     1 :       0.0000    0.0000    0.0000
  band No.  band energies     occupation 
      1     -23.0194      1.00000
      2     -19.6134      1.00000
      3     -18.5006      1.00000
      4     -15.1746      1.00000
      5     -15.1594      1.00000
      6     -12.6228      1.00000
      7     -11.4146      1.00000
      8     -11.1257      1.00000
      9     -10.0766      1.00000
     10      -9.4877      1.00000
     11      -9.4213      1.00000
     12      -8.4314      1.00000
     13      -6.9185      1.00000
     14      -6.3393      1.00000
     15      -5.5986      1.00000
     16      -1.6088      0.00000
     17      -1.2263      0.00000
     18      -0.4899      0.00000
     19       0.6501      0.00000
     20       0.6924      0.00000
     21       0.7273      0.00000
     22       0.7845      0.00000
     23       1.0241      0.00000
     24       1.3175      0.00000
     25       1.7739      0.00000
     26       1.8917      0.00000
     27       2.1103      0.00000
     28       2.1323      0.00000
     29       2.1741      0.00000
     30       2.2503      0.00000
     31       2.3342      0.00000
     32       2.3706      0.00000

 k-point     2 :       0.3333    0.0000    0.0000
  band No.  band energies     occupation 
      1     -23.0194      1.00000
      2     -19.6134      1.00000
      3     -18.5006      1.00000
      4     -15.1745      1.00000
      5     -15.1594      1.00000
      6     -12.6226      1.00000
      7     -11.4147      1.00000
      8     -11.1265      1.00000
      9     -10.0778      1.00000
     10      -9.4879      1.00000
     11      -9.4215      1.00000
     12      -8.4300      1.00000
     13      -6.9188      1.00000
     14      -6.3396      1.00000
     15      -5.5980      1.00000
     16      -1.6089      0.00000
     17      -1.2226      0.00000
     18      -0.3152      0.00000
     19       0.1995      0.00000
     20       0.8151      0.00000
     21       0.8818      0.00000
     22       0.9102      0.00000
     23       1.0667      0.00000
     24       1.3113      0.00000
     25       1.4270      0.00000
     26       1.6022      0.00000
     27       1.6708      0.00000
     28       1.8992      0.00000
     29       2.0212      0.00000
     30       2.2800      0.00000
     31       2.2823      0.00000
     32       2.5795      0.00000

 k-point     3 :       0.0000    0.5000    0.0000
  band No.  band energies     occupation 
      1     -23.0194      1.00000
      2     -19.6134      1.00000
      3     -18.5006      1.00000
      4     -15.1746      1.00000
      5     -15.1594      1.00000
      6     -12.6229      1.00000
      7     -11.4147      1.00000
      8     -11.1257      1.00000
      9     -10.0767      1.00000
     10      -9.4877      1.00000
     11      -9.4216      1.00000
     12      -8.4314      1.00000
     13      -6.9186      1.00000
     14      -6.3392      1.00000
     15      -5.5990      1.00000
     16      -1.6092      0.00000
     17      -1.2247      0.00000
     18      -0.3150      0.00000
     19       0.0568      0.00000
     20       0.8429      0.00000
     21       0.8977      0.00000
     22       1.0925      0.00000
     23       1.2063      0.00000
     24       1.2567      0.00000
     25       1.2913      0.00000
     26       1.5737      0.00000
     27       1.6341      0.00000
     28       1.9674      0.00000
     29       2.2557      0.00000
     30       2.3331      0.00000
     31       2.5909      0.00000
     32       2.8033      0.00000

 k-point     4 :       0.3333    0.5000    0.0000
  band No.  band energies     occupation 
      1     -23.0193      1.00000
      2     -19.6134      1.00000
      3     -18.5006      1.00000
      4     -15.1745      1.00000
      5     -15.1594      1.00000
      6     -12.6224      1.00000
      7     -11.4145      1.00000
      8     -11.1264      1.00000
      9     -10.0777      1.00000
     10      -9.4878      1.00000
     11      -9.4215      1.00000
     12      -8.4297      1.00000
     13      -6.9186      1.00000
     14      -6.3395      1.00000
     15      -5.5982      1.00000
     16      -1.6087      0.00000
     17      -1.2207      0.00000
     18      -0.1371      0.00000
     19       0.1678      0.00000
     20       0.4273      0.00000
     21       0.7433      0.00000
     22       1.0508      0.00000
     23       1.1321      0.00000
     24       1.3955      0.00000
     25       1.4422      0.00000
     26       1.5886      0.00000
     27       1.6535      0.00000
     28       1.8918      0.00000
     29       1.9930      0.00000
     30       2.2422      0.00000
     31       2.4553      0.00000
     32       2.5112      0.00000

 k-point     5 :       0.0000    0.0000    0.5000
  band No.  band energies     occupation 
      1     -23.0194      1.00000
      2     -19.6134      1.00000
      3     -18.5006      1.00000
      4     -15.1746      1.00000
      5     -15.1594      1.00000
      6     -12.6229      1.00000
      7     -11.4148      1.00000
      8     -11.1255      1.00000
      9     -10.0766      1.00000
     10      -9.4879      1.00000
     11      -9.4215      1.00000
     12      -8.4315      1.00000
     13      -6.9179      1.00000
     14      -6.3388      1.00000
     15      -5.5989      1.00000
     16      -1.6081      0.00000
     17      -1.2260      0.00000
     18      -0.4398      0.00000
     19       0.2904      0.00000
     20       0.6867      0.00000
     21       0.7928      0.00000
     22       1.0581      0.00000
     23       1.1892      0.00000
     24       1.4972      0.00000
     25       1.5977      0.00000
     26       1.7412      0.00000
     27       1.8135      0.00000
     28       1.8634      0.00000
     29       1.8745      0.00000
     30       2.2907      0.00000
     31       2.3288      0.00000
     32       2.4422      0.00000

 k-point     6 :       0.3333    0.0000    0.5000
  band No.  band energies     occupation 
      1     -23.0193      1.00000
      2     -19.6134      1.00000
      3     -18.5006      1.00000
      4     -15.1744      1.00000
      5     -15.1593      1.00000
      6     -12.6224      1.00000
      7     -11.4145      1.00000
      8     -11.1263      1.00000
      9     -10.0777      1.00000
     10      -9.4878      1.00000
     11      -9.4213      1.00000
     12      -8.4297      1.00000
     13      -6.9179      1.00000
     14      -6.3390      1.00000
     15      -5.5979      1.00000
     16      -1.6083      0.00000
     17      -1.2219      0.00000
     18      -0.2638      0.00000
     19       0.2517      0.00000
     20       0.4519      0.00000
     21       0.8951      0.00000
     22       0.9738      0.00000
     23       1.1141      0.00000
     24       1.3003      0.00000
     25       1.5000      0.00000
     26       1.6565      0.00000
     27       1.7469      0.00000
     28       1.8153      0.00000
     29       2.1930      0.00000
     30       2.4173      0.00000
     31       2.6198      0.00000
     32       2.7471      0.00000

 k-point     7 :       0.0000    0.5000    0.5000
  band No.  band energies     occupation 
      1     -23.0194      1.00000
      2     -19.6134      1.00000
      3     -18.5007      1.00000
      4     -15.1746      1.00000
      5     -15.1594      1.00000
      6     -12.6229      1.00000
      7     -11.4147      1.00000
      8     -11.1257      1.00000
      9     -10.0767      1.00000
     10      -9.4882      1.00000
     11      -9.4217      1.00000
     12      -8.4313      1.00000
     13      -6.9184      1.00000
     14      -6.3391      1.00000
     15      -5.5992      1.00000
     16      -1.6092      0.00000
     17      -1.2250      0.00000
     18      -0.2708      0.00000
     19       0.1256      0.00000
     20       0.5044      0.00000
     21       0.7293      0.00000
     22       1.1181      0.00000
     23       1.1328      0.00000
     24       1.3866      0.00000
     25       1.6208      0.00000
     26       1.7324      0.00000
     27       1.9220      0.00000
     28       2.0918      0.00000
     29       2.1825      0.00000
     30       2.2520      0.00000
     31       2.4730      0.00000
     32       2.8939      0.00000

 k-point     8 :       0.3333    0.5000    0.5000
  band No.  band energies     occupation 
      1     -23.0194      1.00000
      2     -19.6134      1.00000
      3     -18.5007      1.00000
      4     -15.1745      1.00000
      5     -15.1594      1.00000
      6     -12.6226      1.00000
      7     -11.4148      1.00000
      8     -11.1265      1.00000
      9     -10.0779      1.00000
     10      -9.4878      1.00000
     11      -9.4216      1.00000
     12      -8.4299      1.00000
     13      -6.9182      1.00000
     14      -6.3391      1.00000
     15      -5.5983      1.00000
     16      -1.6092      0.00000
     17      -1.2209      0.00000
     18      -0.0920      0.00000
     19       0.2239      0.00000
     20       0.4982      0.00000
     21       0.6646      0.00000
     22       0.8423      0.00000
     23       0.8896      0.00000
     24       1.1857      0.00000
     25       1.4079      0.00000
     26       1.4757      0.00000
     27       1.9373      0.00000
     28       2.3072      0.00000
     29       2.4002      0.00000
     30       2.5111      0.00000
     31       2.5686      0.00000
     32       2.6452      0.00000

 spin component 2

 k-point     1 :       0.0000    0.0000    0.0000
  band No.  band energies     occupation 
      1     -23.0193      1.00000
      2     -19.6133      1.00000
      3     -18.5007      1.00000
      4     -15.1746      1.00000
      5     -15.1594      1.00000
      6     -12.6228      1.00000
      7     -11.4146      1.00000
      8     -11.1256      1.00000
      9     -10.0765      1.00000
     10      -9.4882      1.00000
     11      -9.4209      1.00000
     12      -8.4314      1.00000
     13      -6.9185      1.00000
     14      -6.3394      1.00000
     15      -5.5986      1.00000
     16      -1.6089      0.00000
     17      -1.2264      0.00000
     18      -0.4898      0.00000
     19       0.6499      0.00000
     20       0.6926      0.00000
     21       0.7275      0.00000
     22       0.7846      0.00000
     23       1.0240      0.00000
     24       1.3173      0.00000
     25       1.7736      0.00000
     26       1.8917      0.00000
     27       2.1126      0.00000
     28       2.1326      0.00000
     29       2.1696      0.00000
     30       2.1912      0.00000
     31       2.2119      0.00000
     32       2.3369      0.00000

 k-point     2 :       0.3333    0.0000    0.0000
  band No.  band energies     occupation 
      1     -23.0193      1.00000
      2     -19.6133      1.00000
      3     -18.5007      1.00000
      4     -15.1745      1.00000
      5     -15.1594      1.00000
      6     -12.6225      1.00000
      7     -11.4147      1.00000
      8     -11.1264      1.00000
      9     -10.0778      1.00000
     10      -9.4883      1.00000
     11      -9.4211      1.00000
     12      -8.4300      1.00000
     13      -6.9187      1.00000
     14      -6.3397      1.00000
     15      -5.5979      1.00000
     16      -1.6090      0.00000
     17      -1.2227      0.00000
     18      -0.3152      0.00000
     19       0.1996      0.00000
     20       0.8151      0.00000
     21       0.8820      0.00000
     22       0.9101      0.00000
     23       1.0666      0.00000
     24       1.3111      0.00000
     25       1.4272      0.00000
     26       1.6011      0.00000
     27       1.6696      0.00000
     28       1.8995      0.00000
     29       2.0205      0.00000
     30       2.2477      0.00000
     31       2.2639      0.00000
     32       2.4302      0.00000

 k-point     3 :       0.0000    0.5000    0.0000
  band No.  band energies     occupation 
      1     -23.0193      1.00000
      2     -19.6133      1.00000
      3     -18.5006      1.00000
      4     -15.1746      1.00000
      5     -15.1594      1.00000
      6     -12.6228      1.00000
      7     -11.4148      1.00000
      8     -11.1256      1.00000
      9     -10.0767      1.00000
     10      -9.4882      1.00000
     11      -9.4213      1.00000
     12      -8.4314      1.00000
     13      -6.9185      1.00000
     14      -6.3393      1.00000
     15      -5.5990      1.00000
     16      -1.6093      0.00000
     17      -1.2248      0.00000
     18      -0.3150      0.00000
     19       0.0569      0.00000
     20       0.8427      0.00000
     21       0.8979      0.00000
     22       1.0924      0.00000
     23       1.2054      0.00000
     24       1.2570      0.00000
     25       1.2914      0.00000
     26       1.5736      0.00000
     27       1.6336      0.00000
     28       1.9672      0.00000
     29       2.2514      0.00000
     30       2.3373      0.00000
     31       2.4364      0.00000
     32       2.5889      0.00000

 k-point     4 :       0.3333    0.5000    0.0000
  band No.  band energies     occupation 
      1     -23.0193      1.00000
      2     -19.6133      1.00000
      3     -18.5007      1.00000
      4     -15.1744      1.00000
      5     -15.1594      1.00000
      6     -12.6224      1.00000
      7     -11.4146      1.00000
      8     -11.1264      1.00000
      9     -10.0777      1.00000
     10      -9.4883      1.00000
     11      -9.4212      1.00000
     12      -8.4297      1.00000
     13      -6.9185      1.00000
     14      -6.3396      1.00000
     15      -5.5981      1.00000
     16      -1.6088      0.00000
     17      -1.2208      0.00000
     18      -0.1371      0.00000
     19       0.1679      0.00000
     20       0.4273      0.00000
     21       0.7434      0.00000
     22       1.0510      0.00000
     23       1.1319      0.00000
     24       1.3954      0.00000
     25       1.4411      0.00000
     26       1.5885      0.00000
     27       1.6536      0.00000
     28       1.8866      0.00000
     29       1.9698      0.00000
     30       1.9969      0.00000
     31       2.3740      0.00000
     32       2.4237      0.00000

 k-point     5 :       0.0000    0.0000    0.5000
  band No.  band energies     occupation 
      1     -23.0193      1.00000
      2     -19.6133      1.00000
      3     -18.5007      1.00000
      4     -15.1746      1.00000
      5     -15.1594      1.00000
      6     -12.6229      1.00000
      7     -11.4148      1.00000
      8     -11.1255      1.00000
      9     -10.0766      1.00000
     10      -9.4883      1.00000
     11      -9.4212      1.00000
     12      -8.4315      1.00000
     13      -6.9179      1.00000
     14      -6.3389      1.00000
     15      -5.5989      1.00000
     16      -1.6082      0.00000
     17      -1.2262      0.00000
     18      -0.4398      0.00000
     19       0.2906      0.00000
     20       0.6867      0.00000
     21       0.7928      0.00000
     22       1.0582      0.00000
     23       1.1893      0.00000
     24       1.4974      0.00000
     25       1.5965      0.00000
     26       1.7413      0.00000
     27       1.8135      0.00000
     28       1.8569      0.00000
     29       1.8711      0.00000
     30       2.0565      0.00000
     31       2.3127      0.00000
     32       2.3424      0.00000

 k-point     6 :       0.3333    0.0000    0.5000
  band No.  band energies     occupation 
      1     -23.0193      1.00000
      2     -19.6133      1.00000
      3     -18.5006      1.00000
      4     -15.1744      1.00000
      5     -15.1593      1.00000
      6     -12.6224      1.00000
      7     -11.4146      1.00000
      8     -11.1262      1.00000
      9     -10.0776      1.00000
     10      -9.4882      1.00000
     11      -9.4210      1.00000
     12      -8.4297      1.00000
     13      -6.9179      1.00000
     14      -6.3390      1.00000
     15      -5.5978      1.00000
     16      -1.6084      0.00000
     17      -1.2220      0.00000
     18      -0.2638      0.00000
     19       0.2517      0.00000
     20       0.4522      0.00000
     21       0.8952      0.00000
     22       0.9740      0.00000
     23       1.1142      0.00000
     24       1.3005      0.00000
     25       1.5001      0.00000
     26       1.6560      0.00000
     27       1.7455      0.00000
     28       1.8165      0.00000
     29       2.1229      0.00000
     30       2.1910      0.00000
     31       2.2460      0.00000
     32       2.5057      0.00000

 k-point     7 :       0.0000    0.5000    0.5000
  band No.  band energies     occupation 
      1     -23.0194      1.00000
      2     -19.6133      1.00000
      3     -18.5007      1.00000
      4     -15.1746      1.00000
      5     -15.1594      1.00000
      6     -12.6229      1.00000
      7     -11.4147      1.00000
      8     -11.1256      1.00000
      9     -10.0767      1.00000
     10      -9.4887      1.00000
     11      -9.4214      1.00000
     12      -8.4313      1.00000
     13      -6.9184      1.00000
     14      -6.3392      1.00000
     15      -5.5992      1.00000
     16      -1.6093      0.00000
     17      -1.2251      0.00000
     18      -0.2708      0.00000
     19       0.1256      0.00000
     20       0.5046      0.00000
     21       0.7296      0.00000
     22       1.1180      0.00000
     23       1.1331      0.00000
     24       1.3861      0.00000
     25       1.6208      0.00000
     26       1.7329      0.00000
     27       1.9220      0.00000
     28       2.0881      0.00000
     29       2.1393      0.00000
     30       2.2139      0.00000
     31       2.2256      0.00000
     32       2.4716      0.00000

 k-point     8 :       0.3333    0.5000    0.5000
  band No.  band energies     occupation 
      1     -23.0193      1.00000
      2     -19.6133      1.00000
      3     -18.5007      1.00000
      4     -15.1744      1.00000
      5     -15.1594      1.00000
      6     -12.6226      1.00000
      7     -11.4148      1.00000
      8     -11.1264      1.00000
      9     -10.0779      1.00000
     10      -9.4883      1.00000
     11      -9.4212      1.00000
     12      -8.4299      1.00000
     13      -6.9182      1.00000
     14      -6.3392      1.00000
     15      -5.5983      1.00000
     16      -1.6093      0.00000
     17      -1.2210      0.00000
     18      -0.0920      0.00000
     19       0.2240      0.00000
     20       0.4982      0.00000
     21       0.6648      0.00000
     22       0.8424      0.00000
     23       0.8898      0.00000
     24       1.1859      0.00000
     25       1.4081      0.00000
     26       1.4758      0.00000
     27       1.9395      0.00000
     28       2.2915      0.00000
     29       2.3948      0.00000
     30       2.4110      0.00000
     31       2.5447      0.00000
     32       2.6455      0.00000


--------------------------------------------------------------------------------------------------------


 soft charge-density along one line, spin component           1
         0         1         2         3         4         5         6         7         8         9
 total charge-density along one line
 
 soft charge-density along one line, spin component           2
         0         1         2         3         4         5         6         7         8         9
 total charge-density along one line
 
 pseudopotential strength for first ion, spin component:           1
 -2.349  -4.049  -0.000  -0.000  -0.002
 -4.049  -6.894  -0.001  -0.000  -0.006
 -0.000  -0.001  -0.337   0.000   0.001
 -0.000  -0.000   0.000  -0.337   0.000
 -0.002  -0.006   0.001   0.000  -0.332
 pseudopotential strength for first ion, spin component:           2
 -2.349  -4.049  -0.000  -0.000  -0.002
 -4.049  -6.894  -0.001  -0.000  -0.006
 -0.000  -0.001  -0.337   0.000   0.001
 -0.000  -0.000   0.000  -0.337   0.000
 -0.002  -0.006   0.001   0.000  -0.332
 total augmentation occupancy for first ion, spin component:           1
  3.569  -0.645   0.053   0.024   0.444
 -0.645   0.130  -0.010  -0.004  -0.082
  0.053  -0.010   0.007   0.000   0.006
  0.024  -0.004   0.000   0.010   0.003
  0.444  -0.082   0.006   0.003   0.056
 total augmentation occupancy for first ion, spin component:           2
 -0.000   0.000   0.000   0.000   0.000
  0.000  -0.000   0.000   0.000   0.000
  0.000   0.000   0.000  -0.000   0.000
  0.000   0.000  -0.000   0.000   0.000
  0.000   0.000   0.000   0.000   0.000


------------------------ aborting loop because EDIFF is reached ----------------------------------------


    FORLOC:  cpu time    0.0224: real time    0.0224
    FORNL :  cpu time    0.1123: real time    0.1226
    STRESS:  cpu time    0.3047: real time    0.3129
    FORCOR:  cpu time    0.0536: real time    0.0632
    OFIELD:  cpu time    0.0009: real time    0.0037

 ---------------------------------------------------------------------------------------------

         DFTD3 V3.0 Rev 1        
 IVDW         = 12
 DF pbe       
 parameters
 VDW_S6       =    1.0000
 VDW_S8       =    0.7875
 VDW_A1       =    0.4289
 VDW_A2       =    4.4407
 k1-k3        =   16.0000    1.3333   -4.0000
 VDW_RADIUS   =   50.2022 A
 VDW_CNRADIUS =   21.1671 A
 Edisp (eV)   -0.27271

 E6    (eV) :    -0.1907
 E8    (eV) :    -0.0820
 % E8        : 30.06
    FORVDW:  cpu time    0.0488: real time    0.0753

  FORCE on cell =-STRESS in cart. coord.  units (eV):
  Direction    XX          YY          ZZ          XY          YZ          ZX
  --------------------------------------------------------------------------------------
  Alpha Z     3.10031     3.10031     3.10031
[...]
     14      -6.3490      1.00000
     15      -5.5739      1.00000
     16      -1.5472      0.00000
     17      -1.1863      0.00000
     18      -0.0858      0.00000
     19       0.2339      0.00000
     20       0.5044      0.00000
     21       0.6630      0.00000
     22       0.8506      0.00000
     23       0.8907      0.00000
     24       1.1852      0.00000
     25       1.4093      0.00000
     26       1.4849      0.00000
     27       1.9553      0.00000
     28       2.3428      0.00000
     29       2.4115      0.00000
     30       2.4896      0.00000
     31       2.5340      0.00000
     32       2.5776      0.00000

 spin component 2

 k-point     1 :       0.0000    0.0000    0.0000
  band No.  band energies     occupation 
      1     -23.1803      1.00000
      2     -19.6696      1.00000
      3     -18.5451      1.00000
      4     -15.2348      1.00000
      5     -15.1753      1.00000
      6     -12.6791      1.00000
      7     -11.4751      1.00000
      8     -11.1233      1.00000
      9     -10.0861      1.00000
     10      -9.5722      1.00000
     11      -9.4320      1.00000
     12      -8.4284      1.00000
     13      -6.9564      1.00000
     14      -6.3492      1.00000
     15      -5.5741      1.00000
     16      -1.5468      0.00000
     17      -1.1916      0.00000
     18      -0.4836      0.00000
     19       0.6621      0.00000
     20       0.6963      0.00000
     21       0.7278      0.00000
     22       0.7949      0.00000
     23       1.0270      0.00000
     24       1.3155      0.00000
     25       1.7903      0.00000
     26       1.8971      0.00000
     27       2.1124      0.00000
     28       2.1329      0.00000
     29       2.1584      0.00000
     30       2.1855      0.00000
     31       2.2097      0.00000
     32       2.3552      0.00000

 k-point     2 :       0.3333    0.0000    0.0000
  band No.  band energies     occupation 
      1     -23.1803      1.00000
      2     -19.6696      1.00000
      3     -18.5451      1.00000
      4     -15.2347      1.00000
      5     -15.1752      1.00000
      6     -12.6789      1.00000
      7     -11.4752      1.00000
      8     -11.1241      1.00000
      9     -10.0874      1.00000
     10      -9.5723      1.00000
     11      -9.4321      1.00000
     12      -8.4271      1.00000
     13      -6.9567      1.00000
     14      -6.3495      1.00000
     15      -5.5735      1.00000
     16      -1.5469      0.00000
     17      -1.1880      0.00000
     18      -0.3090      0.00000
     19       0.2066      0.00000
     20       0.8198      0.00000
     21       0.8822      0.00000
     22       0.9214      0.00000
     23       1.0727      0.00000
     24       1.3198      0.00000
     25       1.4289      0.00000
     26       1.6078      0.00000
     27       1.6721      0.00000
     28       1.9034      0.00000
     29       2.0320      0.00000
     30       2.2590      0.00000
     31       2.2785      0.00000
     32       2.4658      0.00000

 k-point     3 :       0.0000    0.5000    0.0000
  band No.  band energies     occupation 
      1     -23.1803      1.00000
      2     -19.6696      1.00000
      3     -18.5450      1.00000
      4     -15.2347      1.00000
      5     -15.1753      1.00000
      6     -12.6791      1.00000
      7     -11.4753      1.00000
      8     -11.1234      1.00000
      9     -10.0863      1.00000
     10      -9.5722      1.00000
     11      -9.4323      1.00000
     12      -8.4285      1.00000
     13      -6.9564      1.00000
     14      -6.3491      1.00000
     15      -5.5746      1.00000
     16      -1.5473      0.00000
     17      -1.1900      0.00000
     18      -0.3094      0.00000
     19       0.0640      0.00000
     20       0.8467      0.00000
     21       0.8971      0.00000
     22       1.0986      0.00000
     23       1.2120      0.00000
     24       1.2600      0.00000
     25       1.3071      0.00000
     26       1.5783      0.00000
     27       1.6421      0.00000
     28       1.9708      0.00000
     29       2.2562      0.00000
     30       2.4137      0.00000
     31       2.4358      0.00000
     32       2.5413      0.00000

 k-point     4 :       0.3333    0.5000    0.0000
  band No.  band energies     occupation 
      1     -23.1803      1.00000
      2     -19.6696      1.00000
      3     -18.5451      1.00000
      4     -15.2346      1.00000
      5     -15.1752      1.00000
      6     -12.6787      1.00000
      7     -11.4751      1.00000
      8     -11.1240      1.00000
      9     -10.0872      1.00000
     10      -9.5723      1.00000
     11      -9.4322      1.00000
     12      -8.4269      1.00000
     13      -6.9565      1.00000
     14      -6.3494      1.00000
     15      -5.5737      1.00000
     16      -1.5467      0.00000
     17      -1.1861      0.00000
     18      -0.1318      0.00000
     19       0.1765      0.00000
     20       0.4314      0.00000
     21       0.7510      0.00000
     22       1.0509      0.00000
     23       1.1370      0.00000
     24       1.3996      0.00000
     25       1.4451      0.00000
     26       1.5893      0.00000
     27       1.6602      0.00000
     28       1.8939      0.00000
     29       1.9786      0.00000
     30       2.0041      0.00000
     31       2.3724      0.00000
     32       2.5197      0.00000

 k-point     5 :       0.0000    0.0000    0.5000
  band No.  band energies     occupation 
      1     -23.1803      1.00000
      2     -19.6696      1.00000
      3     -18.5451      1.00000
      4     -15.2347      1.00000
      5     -15.1752      1.00000
      6     -12.6792      1.00000
      7     -11.4753      1.00000
      8     -11.1232      1.00000
      9     -10.0862      1.00000
     10      -9.5723      1.00000
     11      -9.4322      1.00000
     12      -8.4285      1.00000
     13      -6.9558      1.00000
     14      -6.3487      1.00000
     15      -5.5745      1.00000
     16      -1.5461      0.00000
     17      -1.1914      0.00000
     18      -0.4325      0.00000
     19       0.2900      0.00000
     20       0.7001      0.00000
     21       0.8045      0.00000
     22       1.0587      0.00000
     23       1.1935      0.00000
     24       1.4983      0.00000
     25       1.5956      0.00000
     26       1.7421      0.00000
     27       1.8250      0.00000
     28       1.8580      0.00000
     29       1.8863      0.00000
     30       2.0585      0.00000
     31       2.3041      0.00000
     32       2.4257      0.00000

 k-point     6 :       0.3333    0.0000    0.5000
  band No.  band energies     occupation 
      1     -23.1803      1.00000
      2     -19.6696      1.00000
      3     -18.5450      1.00000
      4     -15.2346      1.00000
      5     -15.1751      1.00000
      6     -12.6787      1.00000
      7     -11.4751      1.00000
      8     -11.1239      1.00000
      9     -10.0872      1.00000
     10      -9.5722      1.00000
     11      -9.4320      1.00000
     12      -8.4268      1.00000
     13      -6.9558      1.00000
     14      -6.3488      1.00000
     15      -5.5734      1.00000
     16      -1.5463      0.00000
     17      -1.1873      0.00000
     18      -0.2566      0.00000
     19       0.2602      0.00000
     20       0.4513      0.00000
     21       0.9047      0.00000
     22       0.9738      0.00000
     23       1.1231      0.00000
     24       1.3112      0.00000
     25       1.5090      0.00000
     26       1.6573      0.00000
     27       1.7467      0.00000
     28       1.8216      0.00000
     29       2.1410      0.00000
     30       2.1998      0.00000
     31       2.2471      0.00000
     32       2.5442      0.00000

 k-point     7 :       0.0000    0.5000    0.5000
  band No.  band energies     occupation 
      1     -23.1803      1.00000
      2     -19.6696      1.00000
      3     -18.5451      1.00000
      4     -15.2348      1.00000
      5     -15.1753      1.00000
      6     -12.6792      1.00000
      7     -11.4752      1.00000
      8     -11.1233      1.00000
      9     -10.0862      1.00000
     10      -9.5727      1.00000
     11      -9.4324      1.00000
     12      -8.4284      1.00000
     13      -6.9563      1.00000
     14      -6.3490      1.00000
     15      -5.5747      1.00000
     16      -1.5473      0.00000
     17      -1.1903      0.00000
     18      -0.2643      0.00000
     19       0.1342      0.00000
     20       0.5034      0.00000
     21       0.7302      0.00000
     22       1.1270      0.00000
     23       1.1360      0.00000
     24       1.4042      0.00000
     25       1.6299      0.00000
     26       1.7462      0.00000
     27       1.9216      0.00000
     28       2.0881      0.00000
     29       2.1528      0.00000
     30       2.2239      0.00000
     31       2.2277      0.00000
     32       2.4960      0.00000

 k-point     8 :       0.3333    0.5000    0.5000
  band No.  band energies     occupation 
      1     -23.1803      1.00000
      2     -19.6696      1.00000
      3     -18.5451      1.00000
      4     -15.2346      1.00000
      5     -15.1752      1.00000
      6     -12.6789      1.00000
      7     -11.4753      1.00000
      8     -11.1241      1.00000
      9     -10.0874      1.00000
     10      -9.5723      1.00000
     11      -9.4322      1.00000
     12      -8.4270      1.00000
     13      -6.9561      1.00000
     14      -6.3490      1.00000
     15      -5.5739      1.00000
     16      -1.5472      0.00000
     17      -1.1863      0.00000
     18      -0.0858      0.00000
     19       0.2339      0.00000
     20       0.5044      0.00000
     21       0.6630      0.00000
     22       0.8506      0.00000
     23       0.8908      0.00000
     24       1.1852      0.00000
     25       1.4093      0.00000
     26       1.4849      0.00000
     27       1.9553      0.00000
     28       2.3389      0.00000
     29       2.4115      0.00000
     30       2.4324      0.00000
     31       2.5261      0.00000
     32       2.6519      0.00000


--------------------------------------------------------------------------------------------------------


 soft charge-density along one line, spin component           1
         0         1         2         3         4         5         6         7         8         9
 total charge-density along one line
 
 soft charge-density along one line, spin component           2
         0         1         2         3         4         5         6         7         8         9
 total charge-density along one line
 
 pseudopotential strength for first ion, spin component:           1
 -2.349  -4.049  -0.000  -0.000  -0.002
 -4.049  -6.894  -0.001  -0.000  -0.006
 -0.000  -0.001  -0.337   0.000   0.001
 -0.000  -0.000   0.000  -0.337   0.000
 -0.002  -0.006   0.001   0.000  -0.332
 pseudopotential strength for first ion, spin component:           2
 -2.349  -4.049  -0.000  -0.000  -0.002
 -4.049  -6.894  -0.001  -0.000  -0.006
 -0.000  -0.001  -0.337   0.000   0.001
 -0.000  -0.000   0.000  -0.337   0.000
 -0.002  -0.006   0.001   0.000  -0.332
 total augmentation occupancy for first ion, spin component:           1
  3.577  -0.646   0.052   0.013   0.447
 -0.646   0.130  -0.010  -0.002  -0.083
  0.052  -0.010   0.007   0.000   0.006
  0.013  -0.002   0.000   0.010   0.001
  0.447  -0.083   0.006   0.001   0.056
 total augmentation occupancy for first ion, spin component:           2
 -0.000   0.000  -0.000   0.000  -0.000
  0.000  -0.000   0.000  -0.000   0.000
 -0.000   0.000   0.000   0.000  -0.000
  0.000  -0.000   0.000  -0.000   0.000
 -0.000   0.000  -0.000   0.000  -0.000


------------------------ aborting loop because EDIFF is reached ----------------------------------------


    FORLOC:  cpu time    0.0072: real time    0.0073
    FORNL :  cpu time    0.1040: real time    0.1043
    STRESS:  cpu time    0.2895: real time    0.2902
    FORCOR:  cpu time    0.0492: real time    0.0493
    OFIELD:  cpu time    0.0004: real time    0.0004

 ---------------------------------------------------------------------------------------------

         DFTD3 V3.0 Rev 1        
 Edisp (eV)   -0.27340

 E6    (eV) :    -0.1912
 E8    (eV) :    -0.0822
 % E8        : 30.06
    FORVDW:  cpu time    0.0258: real time    0.0259

  FORCE on cell =-STRESS in cart. coord.  units (eV):
  Direction    XX          YY          ZZ          XY          YZ          ZX
  --------------------------------------------------------------------------------------
  Alpha Z     3.10031     3.10031     3.10031
  Ewald    1068.68925   891.28188  -721.24683    40.14749    -9.26256    30.11459
  Hartree  1141.14915   995.79893   -31.16073     6.89581    -5.65990    16.84479
  E(xc)    -110.14485  -110.27618  -113.50827     0.17426    -0.02044     0.07424
  Local   -2494.98212 -2179.48414   410.89628   -37.47799    14.75916   -45.76380
  n-local   -45.13508   -46.07731   -39.02239     1.21180     0.08009    -0.14427
  augment    -0.34695    -0.13134    -0.27410    -0.28483    -0.00751     0.00019
  Kinetic   436.49383   444.53343   489.67044   -10.47279     0.11411    -1.11927
  Fock        0.00000     0.00000     0.00000     0.00000     0.00000     0.00000
  vdW        -0.08181    -0.07664    -0.00291     0.00058     0.00051    -0.00149
  -------------------------------------------------------------------------------------
  Total      -1.25829    -1.33106    -1.54821     0.19432     0.00345     0.00498
  in kB      -1.52728    -1.61561    -1.87918     0.23586     0.00419     0.00605
  external pressure =       -1.67 kB  Pullay stress =        0.00 kB


 VOLUME and BASIS-vectors are now :
 -----------------------------------------------------------------------------
  energy-cutoff  :      400.00
  volume of cell :     1320.00
      direct lattice vectors                 reciprocal lattice vectors
    10.000000000  0.000000000  0.000000000     0.100000000  0.000000000  0.000000000
     0.000000000 11.000000000  0.000000000     0.000000000  0.090909091  0.000000000
     0.000000000  0.000000000 12.000000000     0.000000000  0.000000000  0.083333333

  length of vectors
    10.000000000 11.000000000 12.000000000     0.100000000  0.090909091  0.083333333


 FORCES acting on ions:
    Electron-Ion                     Ewald-Force                    Non-Local-Force
 -----------------------------------------------------------------------------------------------
   0.748E+02 0.838E+01 0.218E+01   -.805E+02 -.906E+01 -.233E+01   0.571E+01 0.666E+00 0.163E+00
   0.433E+02 -.636E+02 0.123E+01   -.465E+02 0.683E+02 -.132E+01   0.327E+01 -.473E+01 0.831E-01
   0.320E+02 0.725E+02 0.467E+00   -.342E+02 -.779E+02 -.494E+00   0.220E+01 0.537E+01 0.348E-01
   -.346E+02 -.692E+02 0.136E+00   0.372E+02 0.743E+02 -.141E+00   -.264E+01 -.511E+01 0.197E-01
   -.770E+02 -.460E+01 -.137E+01   0.828E+02 0.477E+01 0.147E+01   -.578E+01 -.165E+00 -.873E-01
   0.177E+03 0.141E+02 0.417E+01   -.178E+03 -.146E+02 -.419E+01   0.124E+01 0.495E+00 0.134E-01
   0.101E+03 -.149E+03 0.327E+01   -.102E+03 0.150E+03 -.330E+01   0.673E+00 -.976E+00 0.464E-01
   0.102E+03 0.160E+03 0.122E+01   -.105E+03 -.161E+03 -.131E+01   0.337E+01 0.118E+01 0.932E-01
   -.756E+02 -.165E+03 -.780E+00   0.765E+02 0.166E+03 0.791E+00   -.895E+00 -.100E+01 -.294E-01
   -.182E+03 -.399E+02 -.396E+01   0.184E+03 0.427E+02 0.396E+01   -.226E+01 -.274E+01 -.657E-02
   -.146E+03 0.215E+03 -.616E+01   0.166E+03 -.243E+03 0.686E+01   -.194E+02 0.281E+02 -.722E+00
 -----------------------------------------------------------------------------------------------
   0.145E+02 -.210E+02 0.398E+00   0.000E+00 0.000E+00 0.000E+00   -.145E+02 0.210E+02 -.392E+00
 
 
 POSITION                                       TOTAL-FORCE (eV/Angst)
 -----------------------------------------------------------------------------------
      2.74737      5.39431      6.25907         0.011813     -0.010428      0.011522
      3.78994      7.68737      6.27899         0.024670     -0.029016     -0.012495
      4.24615      3.39517      6.31103        -0.011824     -0.027517      0.007574
      6.30311      7.85358      6.32178         0.002746     -0.007149      0.013911
      7.64528      5.74549      6.36713         0.015802      0.002858      0.014237
      3.83139      5.51985      6.28946         0.009315      0.012992     -0.010986
      4.41144      6.78857      6.29537        -0.010179      0.013145      0.014996
      4.67068      4.40323      6.31748        -0.021618     -0.008032      0.001134
      5.80303      6.88334      6.32490        -0.006285      0.006107     -0.018519
      6.55190      5.70419      6.35015         0.007440      0.017138     -0.005961
      6.01106      4.47528      6.35046        -0.021880      0.029902     -0.015412
 -----------------------------------------------------------------------------------
    total drift:                                0.000246     -0.001093      0.006377
  FORCES: max atom, RMS     0.040130    0.026077
  Number: max atom                11
  FORCE total and by dimension    0.086488    0.029902


--------------------------------------------------------------------------------------------------------



  FREE ENERGIE OF THE ION-ELECTRON SYSTEM (eV)
  ---------------------------------------------------
  free  energy   TOTEN  =       -71.51620853 eV

  energy  without entropy=      -71.51620853  energy(sigma->0) =      -71.51620853
 
 d Force = 0.1903952E-03[ 0.136E-03, 0.245E-03]  d Energy = 0.1938620E-03-0.347E-05
 d Force =-0.1402378E+00[-0.140E+00,-0.141E+00]  d Ewald  =-0.1402378E+00-0.638E-07


--------------------------------------------------------------------------------------------------------


    POTLOK:  cpu time    0.0664: real time    0.0679


--------------------------------------------------------------------------------------------------------


 stress matrix after NEB project (eV)
     -1.25829      0.19432      0.00498
      0.19432     -1.33106      0.00345
      0.00498      0.00345     -1.54821
  FORCES: max atom, RMS     0.040130    0.026077
  FORCE total and by dimension    0.086488    0.029902
  Stress total and by dimension    2.414038    1.548213
 Conjugate gradient step on ions:
 trial-energy change:   -0.000194  1 .order   -0.000190   -0.000245   -0.000136
  (g-gl).g = 0.794E-03      g.g   = 0.727E-03  gl.gl    = 0.218E-02
 g(Force)  = 0.727E-03   g(Stress)= 0.000E+00 ortho     = 0.322E-04
 gamma     =   0.36458
 trial     =   0.33149
 opt step  =   0.74612  (harmonic =   0.74612) maximal distance =0.00261792
 next E    =   -71.516290   (d E  =  -0.00028)


--------------------------------------------------------------------------------------------------------


  
 reached required accuracy - stopping structural energy minimisation
     LOOP+:  cpu time    3.5210: real time    3.5890
    4ORBIT:  cpu time    0.0000: real time    0.0000

 total amount of memory used by VASP on root node    47065. kBytes
========================================================================

   base      :      30000. kBytes
   nonlr-proj:       1427. kBytes
   fftplans  :       2493. kBytes
   grid      :       6875. kBytes
   one-center:          6. kBytes
   wavefun   :       6264. kBytes
 
  
  
 General timing and accounting informations for this job:
 ========================================================
  
                  Total CPU time used (sec):       80.028
                            User time (sec):       72.247
                          System time (sec):        7.781
                         Elapsed time (sec):       85.285
  
                   Maximum memory used (kb):      440844.
                   Average memory used (kb):           0.
  
                          Minor page faults:        98507
                          Major page faults:            7
                 Voluntary context switches:        10839
