CeO2                                    
           1
     7.707464    0.000000    0.000000
    -3.853732    6.674860    0.000000
     0.000000    0.000000   28.319031
   Ce   O    C    O 
  12  24   1   1
Direct configuration=     1
   0.16666700  0.33333300  0.38888900
   0.16666700  0.83333300  0.38888900
   0.66666700  0.33333300  0.38888900
   0.66666700  0.83333300  0.38888900
   0.00000000  0.00000000  0.61111100
   0.00000000  0.50000000  0.61111100
   0.50000000  0.00000000  0.61111100
   0.50000000  0.50000000  0.61111100
   0.33333300  0.16666700  0.50000000
   0.33333300  0.66666700  0.50000000
   0.83333300  0.16666700  0.50000000
   0.83333300  0.66666700  0.50000000
   0.16666700  0.33333300  0.47222200
   0.16666700  0.83333300  0.47222200
   0.66666700  0.33333300  0.47222200
   0.66666700  0.83333300  0.47222200
   0.00000000  0.00000000  0.36111100
   0.00000000  0.50000000  0.36111100
   0.50000000  0.00000000  0.36111100
   0.50000000  0.50000000  0.36111100
   0.33333300  0.16666700  0.58333300
   0.33333300  0.66666700  0.58333300
   0.83333300  0.16666700  0.58333300
   0.83333300  0.66666700  0.58333300
   0.00000000  0.00000000  0.52777800
   0.00000000  0.50000000  0.52777800
   0.50000000  0.00000000  0.52777800
   0.50000000  0.50000000  0.52777800
   0.33333300  0.16666700  0.41666700
   0.33333300  0.66666700  0.41666700
   0.83333300  0.16666700  0.41666700
   0.83333300  0.66666700  0.41666700
   0.16666700  0.33333300  0.63888900
   0.16666700  0.83333300  0.63888900
   0.66666700  0.33333300  0.63888900
   0.66666700  0.83333300  0.63888900
   0.00000000  0.00000000  0.72389500
   0.00000000  0.00000000  0.76422100
Direct configuration=     2
   0.16666451  0.33332801  0.38862628
   0.16666451  0.83333549  0.38862628
   0.66666700  0.33333300  0.38862492
   0.66667199  0.83333549  0.38862628
  -0.00000000  0.00000000  0.61200446
   0.00012320  0.50006160  0.61129040
   0.49993840 -0.00012320  0.61129040
   0.49993840  0.50006160  0.61129040
   0.33323706  0.16661903  0.50001754
   0.33333300  0.66666700  0.50000252
   0.83338097  0.16661903  0.50001754
   0.83338097  0.66676294  0.50001754
   0.16667702  0.33335305  0.47178975
   0.16667702  0.83332298  0.47178975
   0.66666700  0.33333300  0.47179247
   0.66664695  0.83332298  0.47178975
  -0.00000000 -0.00000000  0.36090085
  -0.00000119  0.49999940  0.36090073
   0.50000060  0.00000119  0.36090073
   0.50000060  0.49999940  0.36090073
   0.33353532  0.16676816  0.58310975
   0.33333300  0.66666700  0.58311815
   0.83323184  0.16676816  0.58310975
   0.83323184  0.66646468  0.58310975
  -0.00000000 -0.00000000  0.52810100
   0.00000823  0.50000412  0.52820873
   0.49999588 -0.00000823  0.52820873
   0.49999588  0.50000412  0.52820873
   0.33333438  0.16666769  0.41688123
   0.33333300  0.66666700  0.41688086
   0.83333231  0.16666769  0.41688123
   0.83333231  0.66666562  0.41688123
   0.16717109  0.33434117  0.63905001
   0.16717109  0.83282891  0.63905001
   0.66666700  0.33333300  0.63918340
   0.66565883  0.83282891  0.63905001
  -0.00000000  0.00000000  0.72348418
  -0.00000000 -0.00000000  0.76439996
Direct configuration=     3
   0.16666453  0.33332807  0.38862921
   0.16666453  0.83333547  0.38862921
   0.66666700  0.33333300  0.38862787
   0.66667193  0.83333547  0.38862921
  -0.00000000  0.00000000  0.61199449
   0.00012182  0.50006091  0.61128840
   0.49993909 -0.00012182  0.61128840
   0.49993909  0.50006091  0.61128840
   0.33323813  0.16661957  0.50001735
   0.33333300  0.66666700  0.50000250
   0.83338043  0.16661957  0.50001735
   0.83338043  0.66676187  0.50001735
   0.16667691  0.33335282  0.47179457
   0.16667691  0.83332309  0.47179457
   0.66666700  0.33333300  0.47179726
   0.66664718  0.83332309  0.47179457
  -0.00000000 -0.00000000  0.36090320
  -0.00000118  0.49999941  0.36090307
   0.50000059  0.00000118  0.36090307
   0.50000059  0.49999941  0.36090307
   0.33353306  0.16676703  0.58311224
   0.33333300  0.66666700  0.58312055
   0.83323297  0.16676703  0.58311224
   0.83323297  0.66646694  0.58311224
  -0.00000000 -0.00000000  0.52809740
   0.00000814  0.50000407  0.52820392
   0.49999593 -0.00000814  0.52820392
   0.49999593  0.50000407  0.52820392
   0.33333437  0.16666768  0.41687884
   0.33333300  0.66666700  0.41687847
   0.83333232  0.16666768  0.41687884
   0.83333232  0.66666563  0.41687884
   0.16716546  0.33432991  0.63904821
   0.16716546  0.83283454  0.63904821
   0.66666700  0.33333300  0.63918011
   0.66567009  0.83283454  0.63904821
  -0.00000000  0.00000000  0.72348877
  -0.00000000 -0.00000000  0.76439796
Direct configuration=     4
   0.16666395  0.33332690  0.38857802
   0.16666395  0.83333605  0.38857802
   0.66666700  0.33333300  0.38857655
   0.66667310  0.83333605  0.38857802
  -0.00000000 -0.00000000  0.61217026
   0.00013593  0.50006796  0.61132068
   0.49993204 -0.00013593  0.61132068
   0.49993204  0.50006796  0.61132068
   0.33321183  0.16660641  0.50002004
   0.33333300  0.66666700  0.50000094
   0.83339359  0.16660641  0.50002004
   0.83339359  0.66678817  0.50002004
   0.16668043  0.33335986  0.47170619
   0.16668043  0.83331957  0.47170619
   0.66666700  0.33333300  0.47170974
   0.66664014  0.83331957  0.47170619
  -0.00000000 -0.00000000  0.36085647
  -0.00000122  0.49999939  0.36085633
   0.50000061  0.00000122  0.36085633
   0.50000061  0.49999939  0.36085633
   0.33356195  0.16678148  0.58307484
   0.33333300  0.66666700  0.58308036
   0.83321852  0.16678148  0.58307484
   0.83321852  0.66643805  0.58307484
  -0.00000000 -0.00000000  0.52816796
   0.00001185  0.50000593  0.52829238
   0.49999407 -0.00001185  0.52829238
   0.49999407  0.50000593  0.52829238
   0.33333422  0.16666761  0.41691752
   0.33333300  0.66666700  0.41691725
   0.83333239  0.16666761  0.41691752
   0.83333239  0.66666578  0.41691752
   0.16726489  0.33452878  0.63908643
   0.16726489  0.83273511  0.63908643
   0.66666700  0.33333300  0.63924443
   0.66547122  0.83273511  0.63908643
  -0.00000000 -0.00000000  0.72352121
  -0.00000000 -0.00000000  0.76431355
Direct configuration=     5
   0.16666265  0.33332430  0.38846388
   0.16666265  0.83333735  0.38846388
   0.66666700  0.33333300  0.38846210
   0.66667570  0.83333735  0.38846388
  -0.00000000 -0.00000000  0.61256219
   0.00016737  0.50008369  0.61139266
   0.49991631 -0.00016737  0.61139266
   0.49991631  0.50008369  0.61139266
   0.33315319  0.16657709  0.50002604
   0.33333300  0.66666700  0.49999746
   0.83342291  0.16657709  0.50002604
   0.83342291  0.66684681  0.50002604
   0.16668827  0.33337554  0.47150914
   0.16668827  0.83331173  0.47150914
   0.66666700  0.33333300  0.47151460
   0.66662446  0.83331173  0.47150914
  -0.00000000 -0.00000000  0.36075227
  -0.00000133  0.49999933  0.36075211
   0.50000067  0.00000133  0.36075211
   0.50000067  0.49999933  0.36075211
   0.33362637  0.16681369  0.58299144
   0.33333300  0.66666700  0.58299076
   0.83318631  0.16681369  0.58299144
   0.83318631  0.66637363  0.58299144
  -0.00000000 -0.00000000  0.52832529
   0.00002013  0.50001006  0.52848963
   0.49998994 -0.00002013  0.52848963
   0.49998994  0.50001006  0.52848963
   0.33333391  0.16666745  0.41700375
   0.33333300  0.66666700  0.41700371
   0.83333255  0.16666745  0.41700375
   0.83333255  0.66666609  0.41700375
   0.16748660  0.33497220  0.63917165
   0.16748660  0.83251340  0.63917165
   0.66666700  0.33333300  0.63938786
   0.66502780  0.83251340  0.63917165
  -0.00000000 -0.00000000  0.72359355
  -0.00000000 -0.00000000  0.76412534
Direct configuration=     6
   0.16666005  0.33331909  0.38823559
   0.16666005  0.83333995  0.38823559
   0.66666700  0.33333300  0.38823322
   0.66668091  0.83333995  0.38823559
  -0.00000000 -0.00000000  0.61334606
   0.00023027  0.50011513  0.61153662
   0.49988487 -0.00023027  0.61153662
   0.49988487  0.50011513  0.61153662
   0.33303590  0.16651845  0.50003804
   0.33333300  0.66666700  0.49999050
   0.83348155  0.16651845  0.50003804
   0.83348155  0.66696410  0.50003804
   0.16670396  0.33340691  0.47111502
   0.16670396  0.83329604  0.47111502
   0.66666700  0.33333300  0.47112432
   0.66659309  0.83329604  0.47111502
  -0.00000000 -0.00000000  0.36054388
  -0.00000154  0.49999923  0.36054366
   0.50000077  0.00000154  0.36054366
   0.50000077  0.49999923  0.36054366
   0.33375521  0.16687811  0.58282465
   0.33333300  0.66666700  0.58281154
   0.83312189  0.16687811  0.58282465
   0.83312189  0.66624479  0.58282465
  -0.00000000 -0.00000000  0.52863995
   0.00003668  0.50001834  0.52888414
   0.49998166 -0.00003668  0.52888414
   0.49998166  0.50001834  0.52888414
   0.33333327  0.16666714  0.41717621
   0.33333300  0.66666700  0.41717663
   0.83333286  0.16666714  0.41717621
   0.83333286  0.66666673  0.41717621
   0.16793002  0.33585903  0.63934208
   0.16793002  0.83206998  0.63934208
   0.66666700  0.33333300  0.63967471
   0.66414097  0.83206998  0.63934208
  -0.00000000 -0.00000000  0.72373822
  -0.00000000 -0.00000000  0.76374892
Direct configuration=     7
   0.16666179  0.33332259  0.38838880
   0.16666179  0.83333821  0.38838880
   0.66666700  0.33333300  0.38838683
   0.66667741  0.83333821  0.38838880
  -0.00000000 -0.00000000  0.61282000
   0.00018806  0.50009403  0.61144001
   0.49990597 -0.00018806  0.61144001
   0.49990597  0.50009403  0.61144001
   0.33311461  0.16655781  0.50002999
   0.33333300  0.66666700  0.49999517
   0.83344219  0.16655781  0.50002999
   0.83344219  0.66688539  0.50002999
   0.16669343  0.33338586  0.47137952
   0.16669343  0.83330657  0.47137952
   0.66666700  0.33333300  0.47138624
   0.66661414  0.83330657  0.47137952
  -0.00000000 -0.00000000  0.36068374
  -0.00000140  0.49999930  0.36068355
   0.50000070  0.00000140  0.36068355
   0.50000070  0.49999930  0.36068355
   0.33366875  0.16683487  0.58293659
   0.33333300  0.66666700  0.58293181
   0.83316513  0.16683487  0.58293659
   0.83316513  0.66633125  0.58293659
  -0.00000000 -0.00000000  0.52842878
   0.00002557  0.50001279  0.52861938
   0.49998721 -0.00002557  0.52861938
   0.49998721  0.50001279  0.52861938
   0.33333370  0.16666735  0.41706047
   0.33333300  0.66666700  0.41706058
   0.83333265  0.16666735  0.41706047
   0.83333265  0.66666630  0.41706047
   0.16763243  0.33526387  0.63922770
   0.16763243  0.83236757  0.63922770
   0.66666700  0.33333300  0.63948220
   0.66473613  0.83236757  0.63922770
  -0.00000000 -0.00000000  0.72364113
  -0.00000000 -0.00000000  0.76400154
Direct configuration=     8
   0.16666171  0.33332243  0.38838173
   0.16666171  0.83333829  0.38838173
   0.66666700  0.33333300  0.38837974
   0.66667757  0.83333829  0.38838173
  -0.00000000 -0.00000000  0.61284427
   0.00019001  0.50009500  0.61144447
   0.49990500 -0.00019001  0.61144447
   0.49990500  0.50009500  0.61144447
   0.33311098  0.16655599  0.50003036
   0.33333300  0.66666700  0.49999495
   0.83344401  0.16655599  0.50003036
   0.83344401  0.66688902  0.50003036
   0.16669391  0.33338683  0.47136731
   0.16669391  0.83330609  0.47136731
   0.66666700  0.33333300  0.47137416
   0.66661317  0.83330609  0.47136731
  -0.00000000 -0.00000000  0.36067728
  -0.00000141  0.49999930  0.36067710
   0.50000070  0.00000141  0.36067710
   0.50000070  0.49999930  0.36067710
   0.33367274  0.16683687  0.58293142
   0.33333300  0.66666700  0.58292626
   0.83316313  0.16683687  0.58293142
   0.83316313  0.66632726  0.58293142
  -0.00000000 -0.00000000  0.52843852
   0.00002608  0.50001304  0.52863160
   0.49998696 -0.00002608  0.52863160
   0.49998696  0.50001304  0.52863160
   0.33333368  0.16666734  0.41706581
   0.33333300  0.66666700  0.41706593
   0.83333266  0.16666734  0.41706581
   0.83333266  0.66666632  0.41706581
   0.16764616  0.33529133  0.63923298
   0.16764616  0.83235384  0.63923298
   0.66666700  0.33333300  0.63949108
   0.66470867  0.83235384  0.63923298
  -0.00000000 -0.00000000  0.72364561
  -0.00000000 -0.00000000  0.76398988
Direct configuration=     9
   0.16666176  0.33332251  0.38838545
   0.16666176  0.83333824  0.38838545
   0.66666700  0.33333300  0.38838348
   0.66667749  0.83333824  0.38838545
  -0.00000000 -0.00000000  0.61283147
   0.00018898  0.50009449  0.61144212
   0.49990551 -0.00018898  0.61144212
   0.49990551  0.50009449  0.61144212
   0.33311289  0.16655695  0.50003016
   0.33333300  0.66666700  0.49999506
   0.83344305  0.16655695  0.50003016
   0.83344305  0.66688711  0.50003016
   0.16669366  0.33338632  0.47137374
   0.16669366  0.83330634  0.47137374
   0.66666700  0.33333300  0.47138053
   0.66661368  0.83330634  0.47137374
  -0.00000000 -0.00000000  0.36068069
  -0.00000140  0.49999930  0.36068050
   0.50000070  0.00000140  0.36068050
   0.50000070  0.49999930  0.36068050
   0.33367063  0.16683582  0.58293415
   0.33333300  0.66666700  0.58292919
   0.83316418  0.16683582  0.58293415
   0.83316418  0.66632937  0.58293415
  -0.00000000 -0.00000000  0.52843338
   0.00002581  0.50001291  0.52862516
   0.49998709 -0.00002581  0.52862516
   0.49998709  0.50001291  0.52862516
   0.33333369  0.16666734  0.41706299
   0.33333300  0.66666700  0.41706311
   0.83333266  0.16666734  0.41706299
   0.83333266  0.66666631  0.41706299
   0.16763893  0.33527685  0.63923019
   0.16763893  0.83236107  0.63923019
   0.66666700  0.33333300  0.63948640
   0.66472315  0.83236107  0.63923019
  -0.00000000 -0.00000000  0.72364325
  -0.00000000 -0.00000000  0.76399602
Direct configuration=    10
   0.16666137  0.33332175  0.38838247
   0.16666137  0.83333863  0.38838247
   0.66666700  0.33333300  0.38838179
   0.66667825  0.83333863  0.38838247
  -0.00000000 -0.00000000  0.61284180
   0.00016255  0.50008128  0.61143609
   0.49991872 -0.00016255  0.61143609
   0.49991872  0.50008128  0.61143609
   0.33308838  0.16654469  0.50002902
   0.33333300  0.66666700  0.49998974
   0.83345531  0.16654469  0.50002902
   0.83345531  0.66691162  0.50002902
   0.16669818  0.33339535  0.47135863
   0.16669818  0.83330182  0.47135863
   0.66666700  0.33333300  0.47136664
   0.66660465  0.83330182  0.47135863
  -0.00000000 -0.00000000  0.36066068
  -0.00000086  0.49999957  0.36066056
   0.50000043  0.00000086  0.36066056
   0.50000043  0.49999957  0.36066056
   0.33363730  0.16681915  0.58295267
   0.33333300  0.66666700  0.58293296
   0.83318085  0.16681915  0.58295267
   0.83318085  0.66636270  0.58295267
  -0.00000000 -0.00000000  0.52845827
   0.00003093  0.50001546  0.52864065
   0.49998454 -0.00003093  0.52864065
   0.49998454  0.50001546  0.52864065
   0.33333212  0.16666656  0.41705372
   0.33333300  0.66666700  0.41705409
   0.83333344  0.16666656  0.41705372
   0.83333344  0.66666788  0.41705372
   0.16764613  0.33529126  0.63925356
   0.16764613  0.83235387  0.63925356
   0.66666700  0.33333300  0.63951179
   0.66470874  0.83235387  0.63925356
  -0.00000000 -0.00000000  0.72363149
  -0.00000000 -0.00000000  0.76398457
Direct configuration=    11
   0.16666023  0.33331945  0.38837352
   0.16666023  0.83333977  0.38837352
   0.66666700  0.33333300  0.38837673
   0.66668055  0.83333977  0.38837352
  -0.00000000 -0.00000000  0.61287276
   0.00008328  0.50004164  0.61141802
   0.49995836 -0.00008328  0.61141802
   0.49995836  0.50004164  0.61141802
   0.33301482  0.16650791  0.50002560
   0.33333300  0.66666700  0.49997377
   0.83349209  0.16650791  0.50002560
   0.83349209  0.66698518  0.50002560
   0.16671172  0.33342245  0.47131329
   0.16671172  0.83328828  0.47131329
   0.66666700  0.33333300  0.47132496
   0.66657755  0.83328828  0.47131329
  -0.00000000 -0.00000000  0.36060068
   0.00000076  0.50000038  0.36060075
   0.49999962 -0.00000076  0.36060075
   0.49999962  0.50000038  0.36060075
   0.33353732  0.16676916  0.58300825
   0.33333300  0.66666700  0.58294429
   0.83323084  0.16676916  0.58300825
   0.83323084  0.66646268  0.58300825
  -0.00000000 -0.00000000  0.52853294
   0.00004627  0.50002313  0.52868713
   0.49997687 -0.00004627  0.52868713
   0.49997687  0.50002313  0.52868713
   0.33332743  0.16666421  0.41702592
   0.33333300  0.66666700  0.41702701
   0.83333579  0.16666421  0.41702592
   0.83333579  0.66667257  0.41702592
   0.16766774  0.33533448  0.63932367
   0.16766774  0.83233226  0.63932367
   0.66666700  0.33333300  0.63958797
   0.66466552  0.83233226  0.63932367
  -0.00000000 -0.00000000  0.72359623
  -0.00000000 -0.00000000  0.76395021
Direct configuration=    12
   0.16665793  0.33331487  0.38835563
   0.16665793  0.83334207  0.38835563
   0.66666700  0.33333300  0.38836660
   0.66668513  0.83334207  0.38835563
  -0.00000000 -0.00000000  0.61293468
  -0.00007527  0.49996236  0.61138188
   0.50003764  0.00007527  0.61138188
   0.50003764  0.49996236  0.61138188
   0.33286772  0.16643436  0.50001875
   0.33333300  0.66666700  0.49994183
   0.83356564  0.16643436  0.50001875
   0.83356564  0.66713228  0.50001875
   0.16673882  0.33347665  0.47122260
   0.16673882  0.83326118  0.47122260
   0.66666700  0.33333300  0.47124162
   0.66652335  0.83326118  0.47122260
  -0.00000000 -0.00000000  0.36048067
   0.00000399  0.50000200  0.36048112
   0.49999800 -0.00000399  0.36048112
   0.49999800  0.50000200  0.36048112
   0.33333734  0.16666917  0.58311940
   0.33333300  0.66666700  0.58296694
   0.83333083  0.16666917  0.58311940
   0.83333083  0.66666266  0.58311940
  -0.00000000 -0.00000000  0.52868228
   0.00007695  0.50003847  0.52878009
   0.49996153 -0.00007695  0.52878009
   0.49996153  0.50003847  0.52878009
   0.33331804  0.16665952  0.41697031
   0.33333300  0.66666700  0.41697285
   0.83334048  0.16665952  0.41697031
   0.83334048  0.66668196  0.41697031
   0.16771096  0.33542091  0.63946390
   0.16771096  0.83228904  0.63946390
   0.66666700  0.33333300  0.63974031
   0.66457909  0.83228904  0.63946390
  -0.00000000 -0.00000000  0.72352570
  -0.00000000 -0.00000000  0.76388149
Direct configuration=    13
   0.16665335  0.33330570  0.38831983
   0.16665335  0.83334665  0.38831983
   0.66666700  0.33333300  0.38834636
   0.66669430  0.83334665  0.38831983
   0.00000000 -0.00000000  0.61305853
  -0.00039238  0.49980381  0.61130960
   0.50019619  0.00039238  0.61130960
   0.50019619  0.49980381  0.61130960
   0.33257350  0.16628725  0.50000504
   0.33333300  0.66666700  0.49987795
   0.83371275  0.16628725  0.50000504
   0.83371275  0.66742650  0.50000504
   0.16679302  0.33358504  0.47104123
   0.16679302  0.83320698  0.47104123
   0.66666700  0.33333300  0.47107493
   0.66641496  0.83320698  0.47104123
   0.00000000 -0.00000000  0.36024064
   0.00001047  0.50000523  0.36024187
   0.49999477 -0.00001047  0.36024187
   0.49999477  0.50000523  0.36024187
   0.33293739  0.16646919  0.58334171
   0.33333300  0.66666700  0.58301224
   0.83353081  0.16646919  0.58334171
   0.83353081  0.66706261  0.58334171
   0.00000000 -0.00000000  0.52898095
   0.00013831  0.50006916  0.52896601
   0.49993084 -0.00013831  0.52896601
   0.49993084  0.50006916  0.52896601
   0.33329925  0.16665013  0.41685909
   0.33333300  0.66666700  0.41686454
   0.83334987  0.16665013  0.41685909
   0.83334987  0.66670075  0.41685909
   0.16779739  0.33559379  0.63974434
   0.16779739  0.83220261  0.63974434
   0.66666700  0.33333300  0.64004501
   0.66440621  0.83220261  0.63974434
   0.00000000 -0.00000000  0.72338463
   0.00000000 -0.00000000  0.76374404
Direct configuration=    14
   0.16665446  0.33330792  0.38825471
   0.16665446  0.83334554  0.38825471
   0.66666700  0.33333300  0.38829867
   0.66669208  0.83334554  0.38825471
   0.00000000 -0.00000000  0.61315510
  -0.00037577  0.49981212  0.61137042
   0.50018788  0.00037577  0.61137042
   0.50018788  0.49981212  0.61137042
   0.33254007  0.16627053  0.50001981
   0.33333300  0.66666700  0.49988842
   0.83372947  0.16627053  0.50001981
   0.83372947  0.66745993  0.50001981
   0.16679267  0.33358434  0.47102319
   0.16679267  0.83320733  0.47102319
   0.66666700  0.33333300  0.47106648
   0.66641566  0.83320733  0.47102319
   0.00000000 -0.00000000  0.36015687
   0.00001458  0.50000729  0.36015922
   0.49999271 -0.00001458  0.36015922
   0.49999271  0.50000729  0.36015922
   0.33278861  0.16639481  0.58341261
   0.33333300  0.66666700  0.58301122
   0.83360519  0.16639481  0.58341261
   0.83360519  0.66721139  0.58341261
   0.00000000 -0.00000000  0.52903031
   0.00010055  0.50005028  0.52896214
   0.49994972 -0.00010055  0.52896214
   0.49994972  0.50005028  0.52896214
   0.33327683  0.16663891  0.41681176
   0.33333300  0.66666700  0.41680928
   0.83336109  0.16663891  0.41681176
   0.83336109  0.66672317  0.41681176
   0.16781084  0.33562068  0.63984287
   0.16781084  0.83218916  0.63984287
   0.66666700  0.33333300  0.64013598
   0.66437932  0.83218916  0.63984287
   0.00000000 -0.00000000  0.72330361
   0.00000000 -0.00000000  0.76368989
Direct configuration=    15
   0.16665780  0.33331460  0.38805934
   0.16665780  0.83334220  0.38805934
   0.66666700  0.33333300  0.38815559
   0.66668540  0.83334220  0.38805934
   0.00000000  0.00000000  0.61344480
  -0.00032595  0.49983702  0.61155288
   0.50016298  0.00032595  0.61155288
   0.50016298  0.49983702  0.61155288
   0.33243976  0.16622038  0.50006411
   0.33333300  0.66666700  0.49991984
   0.83377962  0.16622038  0.50006411
   0.83377962  0.66756024  0.50006411
   0.16679162  0.33358224  0.47096906
   0.16679162  0.83320838  0.47096906
   0.66666700  0.33333300  0.47104115
   0.66641776  0.83320838  0.47096906
   0.00000000  0.00000000  0.35990556
   0.00002690  0.50001345  0.35991127
   0.49998655 -0.00002690  0.35991127
   0.49998655  0.50001345  0.35991127
   0.33234229  0.16617164  0.58362529
   0.33333300  0.66666700  0.58300816
   0.83382836  0.16617164  0.58362529
   0.83382836  0.66765771  0.58362529
   0.00000000 -0.00000000  0.52917838
  -0.00001273  0.49999364  0.52895054
   0.50000636  0.00001273  0.52895054
   0.50000636  0.49999364  0.52895054
   0.33320955  0.16660528  0.41666978
   0.33333300  0.66666700  0.41664350
   0.83339472  0.16660528  0.41666978
   0.83339472  0.66679045  0.41666978
   0.16785117  0.33570135  0.64013844
   0.16785117  0.83214883  0.64013844
   0.66666700  0.33333300  0.64040889
   0.66429865  0.83214883  0.64013844
   0.00000000  0.00000000  0.72306054
   0.00000000  0.00000000  0.76352743
Direct configuration=    16
   0.16666448  0.33332797  0.38766861
   0.16666448  0.83333552  0.38766861
   0.66666700  0.33333300  0.38786944
   0.66667203  0.83333552  0.38766861
   0.00000000  0.00000000  0.61402419
  -0.00022631  0.49988684  0.61191780
   0.50011316  0.00022631  0.61191780
   0.50011316  0.49988684  0.61191780
   0.33223916  0.16612008  0.50015271
   0.33333300  0.66666700  0.49998267
   0.83387992  0.16612008  0.50015271
   0.83387992  0.66776084  0.50015271
   0.16678952  0.33357803  0.47086080
   0.16678952  0.83321048  0.47086080
   0.66666700  0.33333300  0.47099049
   0.66642197  0.83321048  0.47086080
   0.00000000  0.00000000  0.35940294
   0.00005154  0.50002577  0.35941538
   0.49997423 -0.00005154  0.35941538
   0.49997423  0.50002577  0.35941538
   0.33144964  0.16572532  0.58405066
   0.33333300  0.66666700  0.58300203
   0.83427468  0.16572532  0.58405066
   0.83427468  0.66855036  0.58405066
   0.00000000  0.00000000  0.52947454
  -0.00023928  0.49988036  0.52892733
   0.50011964  0.00023928  0.52892733
   0.50011964  0.49988036  0.52892733
   0.33307500  0.16653800  0.41638582
   0.33333300  0.66666700  0.41631195
   0.83346200  0.16653800  0.41638582
   0.83346200  0.66692500  0.41638582
   0.16793184  0.33586268  0.64072960
   0.16793184  0.83206816  0.64072960
   0.66666700  0.33333300  0.64095471
   0.66413732  0.83206816  0.64072960
   0.00000000  0.00000000  0.72257440
   0.00000000  0.00000000  0.76320252
Direct configuration=    17
   0.16666556  0.33333012  0.38761926
   0.16666556  0.83333444  0.38761926
   0.66666700  0.33333300  0.38783323
   0.66666988  0.83333444  0.38761926
   0.00000000  0.00000000  0.61409436
  -0.00020423  0.49989789  0.61196708
   0.50010211  0.00020423  0.61196708
   0.50010211  0.49989789  0.61196708
   0.33222815  0.16611457  0.50015814
   0.33333300  0.66666700  0.49998223
   0.83388543  0.16611457  0.50015814
   0.83388543  0.66777185  0.50015814
   0.16678453  0.33356805  0.47085748
   0.16678453  0.83321547  0.47085748
   0.66666700  0.33333300  0.47099199
   0.66643195  0.83321547  0.47085748
   0.00000000  0.00000000  0.35934565
   0.00005199  0.50002599  0.35935982
   0.49997401 -0.00005199  0.35935982
   0.49997401  0.50002599  0.35935982
   0.33137611  0.16568856  0.58409824
   0.33333300  0.66666700  0.58300683
   0.83431144  0.16568856  0.58409824
   0.83431144  0.66862389  0.58409824
   0.00000000  0.00000000  0.52949677
  -0.00027805  0.49986098  0.52892320
   0.50013902  0.00027805  0.52892320
   0.50013902  0.49986098  0.52892320
   0.33306086  0.16653093  0.41635455
   0.33333300  0.66666700  0.41627426
   0.83346907  0.16653093  0.41635455
   0.83346907  0.66693914  0.41635455
   0.16794985  0.33589871  0.64079680
   0.16794985  0.83205015  0.64079680
   0.66666700  0.33333300  0.64101079
   0.66410129  0.83205015  0.64079680
   0.00000000  0.00000000  0.72257411
   0.00000000  0.00000000  0.76310208
Direct configuration=    18
   0.16666652  0.33333203  0.38757528
   0.16666652  0.83333348  0.38757528
   0.66666700  0.33333300  0.38780096
   0.66666797  0.83333348  0.38757528
   0.00000000  0.00000000  0.61415690
  -0.00018454  0.49990773  0.61201100
   0.50009227  0.00018454  0.61201100
   0.50009227  0.49990773  0.61201100
   0.33221834  0.16610967  0.50016298
   0.33333300  0.66666700  0.49998184
   0.83389033  0.16610967  0.50016298
   0.83389033  0.66778166  0.50016298
   0.16678008  0.33355916  0.47085452
   0.16678008  0.83321992  0.47085452
   0.66666700  0.33333300  0.47099333
   0.66644084  0.83321992  0.47085452
   0.00000000  0.00000000  0.35929459
   0.00005238  0.50002619  0.35931030
   0.49997381 -0.00005238  0.35931030
   0.49997381  0.50002619  0.35931030
   0.33131059  0.16565579  0.58414064
   0.33333300  0.66666700  0.58301110
   0.83434421  0.16565579  0.58414064
   0.83434421  0.66868941  0.58414064
   0.00000000  0.00000000  0.52951658
  -0.00031259  0.49984370  0.52891952
   0.50015630  0.00031259  0.52891952
   0.50015630  0.49984370  0.52891952
   0.33304825  0.16652462  0.41632669
   0.33333300  0.66666700  0.41624068
   0.83347538  0.16652462  0.41632669
   0.83347538  0.66695175  0.41632669
   0.16796591  0.33593081  0.64085668
   0.16796591  0.83203409  0.64085668
   0.66666700  0.33333300  0.64106078
   0.66406919  0.83203409  0.64085668
   0.00000000  0.00000000  0.72257385
   0.00000000  0.00000000  0.76301257
Direct configuration=    19
   0.16666843  0.33333586  0.38748732
   0.16666843  0.83333157  0.38748732
   0.66666700  0.33333300  0.38773641
   0.66666414  0.83333157  0.38748732
   0.00000000  0.00000000  0.61428197
  -0.00014517  0.49992741  0.61209884
   0.50007259  0.00014517  0.61209884
   0.50007259  0.49992741  0.61209884
   0.33219871  0.16609986  0.50017265
   0.33333300  0.66666700  0.49998106
   0.83390014  0.16609986  0.50017265
   0.83390014  0.66780129  0.50017265
   0.16677119  0.33354137  0.47084861
   0.16677119  0.83322881  0.47084861
   0.66666700  0.33333300  0.47099601
   0.66645863  0.83322881  0.47084861
   0.00000000  0.00000000  0.35919247
   0.00005317  0.50002659  0.35921126
   0.49997341 -0.00005317  0.35921126
   0.49997341  0.50002659  0.35921126
   0.33117953  0.16559026  0.58422545
   0.33333300  0.66666700  0.58301966
   0.83440974  0.16559026  0.58422545
   0.83440974  0.66882047  0.58422545
   0.00000000  0.00000000  0.52955620
  -0.00038169  0.49980916  0.52891216
   0.50019084  0.00038169  0.52891216
   0.50019084  0.49980916  0.52891216
   0.33302302  0.16651201  0.41627096
   0.33333300  0.66666700  0.41617350
   0.83348799  0.16651201  0.41627096
   0.83348799  0.66697698  0.41627096
   0.16799801  0.33599502  0.64097645
   0.16799801  0.83200199  0.64097645
   0.66666700  0.33333300  0.64116074
   0.66400498  0.83200199  0.64097645
   0.00000000  0.00000000  0.72257333
   0.00000000  0.00000000  0.76283355
Direct configuration=    20
   0.16666786  0.33333472  0.38751359
   0.16666786  0.83333214  0.38751359
   0.66666700  0.33333300  0.38775569
   0.66666528  0.83333214  0.38751359
   0.00000000  0.00000000  0.61424461
  -0.00015693  0.49992153  0.61207260
   0.50007847  0.00015693  0.61207260
   0.50007847  0.49992153  0.61207260
   0.33220457  0.16610279  0.50016976
   0.33333300  0.66666700  0.49998129
   0.83389721  0.16610279  0.50016976
   0.83389721  0.66779543  0.50016976
   0.16677384  0.33354668  0.47085038
   0.16677384  0.83322616  0.47085038
   0.66666700  0.33333300  0.47099521
   0.66645332  0.83322616  0.47085038
   0.00000000  0.00000000  0.35922297
   0.00005294  0.50002647  0.35924085
   0.49997353 -0.00005294  0.35924085
   0.49997353  0.50002647  0.35924085
   0.33121868  0.16560984  0.58420012
   0.33333300  0.66666700  0.58301710
   0.83439016  0.16560984  0.58420012
   0.83439016  0.66878132  0.58420012
   0.00000000  0.00000000  0.52954436
  -0.00036105  0.49981948  0.52891436
   0.50018052  0.00036105  0.52891436
   0.50018052  0.49981948  0.52891436
   0.33303056  0.16651578  0.41628760
   0.33333300  0.66666700  0.41619357
   0.83348422  0.16651578  0.41628760
   0.83348422  0.66696944  0.41628760
   0.16798842  0.33597584  0.64094068
   0.16798842  0.83201158  0.64094068
   0.66666700  0.33333300  0.64113088
   0.66402416  0.83201158  0.64094068
   0.00000000  0.00000000  0.72257349
   0.00000000  0.00000000  0.76288703
Direct configuration=    21
   0.16666806  0.33333512  0.38750438
   0.16666806  0.83333194  0.38750438
   0.66666700  0.33333300  0.38774893
   0.66666488  0.83333194  0.38750438
   0.00000000  0.00000000  0.61425771
  -0.00015281  0.49992360  0.61208180
   0.50007640  0.00015281  0.61208180
   0.50007640  0.49992360  0.61208180