 vasp.5.4.4.18Apr17-6-g9f103f2a35 (build Apr 07 2018 02:38:49) complex          
  
 executed on             LinuxIFC date 2018.11.10  02:19:36
 running on   16 total cores
 distrk:  each k-point on   16 cores,    1 groups
 distr:  one band on NCORES_PER_BAND=   1 cores,   16 groups


--------------------------------------------------------------------------------------------------------


 INCAR:
 POTCAR:   PAW_PBE C 08Apr2002                    
 POTCAR:   PAW_PBE O 08Apr2002                    
 POTCAR:   PAW_PBE H 15Jun2001                    

 ----------------------------------------------------------------------------- 
|                                                                             |
|           W    W    AA    RRRRR   N    N  II  N    N   GGGG   !!!           |
|           W    W   A  A   R    R  NN   N  II  NN   N  G    G  !!!           |
|           W    W  A    A  R    R  N N  N  II  N N  N  G       !!!           |
|           W WW W  AAAAAA  RRRRR   N  N N  II  N  N N  G  GGG   !            |
|           WW  WW  A    A  R   R   N   NN  II  N   NN  G    G                |
|           W    W  A    A  R    R  N    N  II  N    N   GGGG   !!!           |
|                                                                             |
|      For optimal performance we recommend to set                            |
|        NCORE= 4 - approx SQRT( number of cores)                             |
|      NCORE specifies how many cores store one orbital (NPAR=cpu/NCORE).     |
|      This setting can  greatly improve the performance of VASP for DFT.     |
|      The default,   NCORE=1            might be grossly inefficient         |
|      on modern multi-core architectures or massively parallel machines.     |
|      Do your own testing !!!!                                               |
|      Unfortunately you need to use the default for GW and RPA calculations. |
|      (for HF NCORE is supported but not extensively tested yet)             |
|                                                                             |
 ----------------------------------------------------------------------------- 

 POTCAR:   PAW_PBE C 08Apr2002                    
   VRHFIN =C: s2p2                                                              
   LEXCH  = PE                                                                  
   EATOM  =   147.1560 eV,   10.8157 Ry                                         
                                                                                
   TITEL  = PAW_PBE C 08Apr2002                                                 
   LULTRA =        F    use ultrasoft PP ?                                      
   IUNSCR =        0    unscreen: 0-lin 1-nonlin 2-no                           
   RPACOR =     .000    partial core radius                                     
   POMASS =   12.011; ZVAL   =    4.000    mass and valenz                      
   RCORE  =    1.500    outmost cutoff radius                                   
   RWIGS  =    1.630; RWIGS  =     .863    wigner-seitz radius (au A)           
   ENMAX  =  400.000; ENMIN  =  300.000 eV                                      
   ICORE  =        2    local potential                                         
   LCOR   =        T    correct aug charges                                     
   LPAW   =        T    paw PP                                                  
   EAUG   =  644.873                                                            
   DEXC   =     .000                                                            
   RMAX   =    2.266    core radius for proj-oper                               
   RAUG   =    1.300    factor for augmentation sphere                          
   RDEP   =    1.501    radius for radial grids                                 
   RDEPT  =    1.300    core radius for aug-charge                              
   QCUT   =   -5.516; QGAM   =   11.032    optimization parameters              
                                                                                
   Description                                                                  
     l     E      TYP  RCUT    TYP  RCUT                                        
     0   .000     23  1.200                                                     
     0   .000     23  1.200                                                     
     1   .000     23  1.500                                                     
     1  2.500     23  1.500                                                     
     2   .000      7  1.500                                                     
  local pseudopotential read in
  atomic valenz-charges read in
  non local Contribution for L=           0  read in
    real space projection operators read in
  non local Contribution for L=           0  read in
    real space projection operators read in
  non local Contribution for L=           1  read in
    real space projection operators read in
  non local Contribution for L=           1  read in
    real space projection operators read in
    PAW grid and wavefunctions read in
 
   number of l-projection  operators is LMAX  =           4
   number of lm-projection operators is LMMAX =           8
 
 POTCAR:   PAW_PBE O 08Apr2002                    
   VRHFIN =O: s2p4                                                              
   LEXCH  = PE                                                                  
   EATOM  =   432.3788 eV,   31.7789 Ry                                         
                                                                                
   TITEL  = PAW_PBE O 08Apr2002                                                 
   LULTRA =        F    use ultrasoft PP ?                                      
   IUNSCR =        0    unscreen: 0-lin 1-nonlin 2-no                           
   RPACOR =     .000    partial core radius                                     
   POMASS =   16.000; ZVAL   =    6.000    mass and valenz                      
   RCORE  =    1.520    outmost cutoff radius                                   
   RWIGS  =    1.550; RWIGS  =     .820    wigner-seitz radius (au A)           
   ENMAX  =  400.000; ENMIN  =  300.000 eV                                      
   ICORE  =        2    local potential                                         
   LCOR   =        T    correct aug charges                                     
   LPAW   =        T    paw PP                                                  
   EAUG   =  605.392                                                            
   DEXC   =     .000                                                            
   RMAX   =    2.264    core radius for proj-oper                               
   RAUG   =    1.300    factor for augmentation sphere                          
   RDEP   =    1.550    radius for radial grids                                 
   QCUT   =   -5.520; QGAM   =   11.041    optimization parameters              
                                                                                
   Description                                                                  
     l     E      TYP  RCUT    TYP  RCUT                                        
     0   .000     23  1.200                                                     
     0  -.700     23  1.200                                                     
     1   .000     23  1.520                                                     
     1   .600     23  1.520                                                     
     2   .000      7  1.500                                                     
  local pseudopotential read in
  atomic valenz-charges read in
  non local Contribution for L=           0  read in
    real space projection operators read in
  non local Contribution for L=           0  read in
    real space projection operators read in
  non local Contribution for L=           1  read in
    real space projection operators read in
  non local Contribution for L=           1  read in
    real space projection operators read in
    PAW grid and wavefunctions read in
 
   number of l-projection  operators is LMAX  =           4
   number of lm-projection operators is LMMAX =           8
 
 POTCAR:   PAW_PBE H 15Jun2001                    
   VRHFIN =H: ultrasoft test                                                    
   LEXCH  = PE                                                                  
   EATOM  =    12.4884 eV,     .9179 Ry                                         
                                                                                
   TITEL  = PAW_PBE H 15Jun2001                                                 
   LULTRA =        F    use ultrasoft PP ?                                      
   IUNSCR =        0    unscreen: 0-lin 1-nonlin 2-no                           
   RPACOR =     .000    partial core radius                                     
   POMASS =    1.000; ZVAL   =    1.000    mass and valenz                      
   RCORE  =    1.100    outmost cutoff radius                                   
   RWIGS  =     .700; RWIGS  =     .370    wigner-seitz radius (au A)           
   ENMAX  =  250.000; ENMIN  =  200.000 eV                                      
   RCLOC  =     .701    cutoff for local pot                                    
   LCOR   =        T    correct aug charges                                     
   LPAW   =        T    paw PP                                                  
   EAUG   =  400.000                                                            
   RMAX   =    2.174    core radius for proj-oper                               
   RAUG   =    1.200    factor for augmentation sphere                          
   RDEP   =    1.112    radius for radial grids                                 
   QCUT   =   -5.749; QGAM   =   11.498    optimization parameters              
                                                                                
   Description                                                                  
     l     E      TYP  RCUT    TYP  RCUT                                        
     0   .000     23  1.100                                                     
     0   .500     23  1.100                                                     
     1  -.300     23  1.100                                                     
  local pseudopotential read in
  atomic valenz-charges read in
  non local Contribution for L=           0  read in
    real space projection operators read in
  non local Contribution for L=           0  read in
    real space projection operators read in
  non local Contribution for L=           1  read in
    real space projection operators read in
    PAW grid and wavefunctions read in
 
   number of l-projection  operators is LMAX  =           3
   number of lm-projection operators is LMMAX =           5
 
 PAW_PBE C 08Apr2002                    :
 energy of atom  1       EATOM= -147.1560
 kinetic energy error for atom=    0.0288 (will be added to EATOM!!)
 PAW_PBE O 08Apr2002                    :
 energy of atom  2       EATOM= -432.3788
 kinetic energy error for atom=    0.1156 (will be added to EATOM!!)
 PAW_PBE H 15Jun2001                    :
 energy of atom  3       EATOM=  -12.4884
 kinetic energy error for atom=    0.0098 (will be added to EATOM!!)
 
 
 POSCAR: ethanol                                 
  positions in direct lattice
  velocities in cartesian coordinates
  No initial velocities read in
 exchange correlation table for  LEXCH =        8
   RHO(1)=    0.500       N(1)  =     2000
   RHO(2)=  100.500       N(2)  =     4000

 VTST: version 3.1, (03/28/14)

 CHAIN: initializing optimizer
 
 OPT: Using VASP Dynamics algorithm
 CHAIN: Read ICHAIN            0
 
 POSCAR: ethanol                                 
  positions in direct lattice
  velocities in cartesian coordinates
  No initial velocities read in
 


--------------------------------------------------------------------------------------------------------


 ion  position               nearest neighbor table
   1  0.448  0.484  0.566-   6 1.10   4 1.10   5 1.10   2 1.52
   2  0.502  0.519  0.607-   8 1.11   7 1.11   3 1.44   1 1.52
   3  0.565  0.505  0.575-   9 0.96   2 1.44
   4  0.456  0.430  0.565-   1 1.10
   5  0.447  0.502  0.514-   1 1.10
   6  0.399  0.493  0.589-   1 1.10
   7  0.502  0.500  0.659-   2 1.11
   8  0.492  0.573  0.608-   2 1.11
   9  0.600  0.527  0.600-   3 0.96
 
  LATTYP: Found a simple cubic cell.
 ALAT       =    20.0000000000
  
  Lattice vectors:
  
 A1 = (  20.0000000000,   0.0000000000,   0.0000000000)
 A2 = (   0.0000000000,  20.0000000000,   0.0000000000)
 A3 = (   0.0000000000,   0.0000000000,  20.0000000000)


Analysis of symmetry for initial positions (statically):
=====================================================================
 Subroutine PRICEL returns:
 Original cell was already a primitive cell.
 

 Routine SETGRP: Setting up the symmetry group for a 
 simple cubic supercell.


 Subroutine GETGRP returns: Found  1 space group operations
 (whereof  1 operations were pure point group operations)
 out of a pool of 48 trial point group operations.


The static configuration has the point symmetry C_1 .


Analysis of symmetry for dynamics (positions and initial velocities):
=====================================================================
 Subroutine PRICEL returns:
 Original cell was already a primitive cell.
 

 Routine SETGRP: Setting up the symmetry group for a 
 simple cubic supercell.


 Subroutine GETGRP returns: Found  1 space group operations
 (whereof  1 operations were pure point group operations)
 out of a pool of 48 trial point group operations.


The dynamic configuration has the point symmetry C_1 .


 Subroutine INISYM returns: Found  1 space group operations
 (whereof  1 operations are pure point group operations),
 and found     1 'primitive' translations

 
 
 KPOINTS: K-POINTS                                

Automatic generation of k-mesh.
Space group operators:
 irot       det(A)        alpha          n_x          n_y          n_z        tau_x        tau_y        tau_z
    1     1.000000     0.000000     1.000000     0.000000     0.000000     0.000000     0.000000     0.000000
 
 Subroutine IBZKPT returns following result:
 ===========================================
 
 Found      1 irreducible k-points:
 
 Following reciprocal coordinates:
            Coordinates               Weight
  0.000000  0.000000  0.000000      1.000000
 
 Following cartesian coordinates:
            Coordinates               Weight
  0.000000  0.000000  0.000000      1.000000
 
 
 Subroutine IBZKPT_HF returns following result:
 ==============================================
 
 Found      1 k-points in 1st BZ
 the following      1 k-points will be used (e.g. in the exchange kernel)
 Following reciprocal coordinates:   # in IRBZ
  0.000000  0.000000  0.000000    1.00000000   1 t-inv F


--------------------------------------------------------------------------------------------------------




 Dimension of arrays:
   k-points           NKPTS =      1   k-points in BZ     NKDIM =      1   number of bands    NBANDS=     16
   number of dos      NEDOS =    301   number of ions     NIONS =      9
   non local maximal  LDIM  =      4   non local SUM 2l+1 LMDIM =      8
   total plane-waves  NPLWV = 941192
   max r-space proj   IRMAX =      1   max aug-charges    IRDMAX=   1726
   dimension x,y,z NGX =    98 NGY =   98 NGZ =   98
   dimension x,y,z NGXF=   196 NGYF=  196 NGZF=  196
   support grid    NGXF=   196 NGYF=  196 NGZF=  196
   ions per type =               2   1   6
   NGX,Y,Z   is equivalent  to a cutoff of   8.15,  8.15,  8.15 a.u.
   NGXF,Y,Z  is equivalent  to a cutoff of  16.29, 16.29, 16.29 a.u.

 SYSTEM =  ethanol                                 
 POSCAR =  ethanol                                 

 Startparameter for this run:
   NWRITE =      2    write-flag & timer
   PREC   = normal    normal or accurate (medium, high low for compatibility)
   ISTART =      0    job   : 0-new  1-cont  2-samecut
   ICHARG =      2    charge: 1-file 2-atom 10-const
   ISPIN  =      1    spin polarized calculation?
   LNONCOLLINEAR =      F non collinear calculations
   LSORBIT =      F    spin-orbit coupling
   INIWAV =      1    electr: 0-lowe 1-rand  2-diag
   LASPH  =      F    aspherical Exc in radial PAW
   METAGGA=      F    non-selfconsistent MetaGGA calc.

 Electronic Relaxation 1
   ENCUT  =  400.0 eV  29.40 Ry    5.42 a.u.  32.61 32.61 32.61*2*pi/ulx,y,z
   ENINI  =  400.0     initial cutoff
   ENAUG  =  644.9 eV  augmentation charge cutoff
   NELM   =     60;   NELMIN=  2; NELMDL= -5     # of ELM steps 
   EDIFF  = 0.1E-05   stopping-criterion for ELM
   LREAL  =      F    real-space projection
   NLSPLINE    = F    spline interpolate recip. space projectors
   LCOMPAT=      F    compatible to vasp.4.4
   GGA_COMPAT  = T    GGA compatible to vasp.4.4-vasp.4.6
   LMAXPAW     = -100 max onsite density
   LMAXMIX     =    2 max onsite mixed and CHGCAR
   VOSKOWN=      0    Vosko Wilk Nusair interpolation
   ROPT   =    0.00000   0.00000   0.00000
 Ionic relaxation
   EDIFFG = 0.1E-04   stopping-criterion for IOM
   NSW    =    145    number of steps for IOM
   NBLOCK =      1;   KBLOCK =    145    inner block; outer block 
   IBRION =      5    ionic relax: 0-MD 1-quasi-New 2-CG
   NFREE  =      2    steps in history (QN), initial steepest desc. (CG)
   ISIF   =      2    stress and relaxation
   IWAVPR =     11    prediction:  0-non 1-charg 2-wave 3-comb
   ISYM   =      2    0-nonsym 1-usesym 2-fastsym
   LCORR  =      T    Harris-Foulkes like correction to forces

   POTIM  = 0.0200    time-step for ionic-motion
   TEIN   =    0.0    initial temperature
   TEBEG  =    0.0;   TEEND  =   0.0 temperature during run
   SMASS  =  -3.00    Nose mass-parameter (am)
   estimated Nose-frequenzy (Omega)   =  0.10E-29 period in steps =****** mass=  -0.914E-26a.u.
   SCALEE = 1.0000    scale energy and forces
   NPACO  =    256;   APACO  = 16.0  distance and # of slots for P.C.
   PSTRESS=    0.0 pullay stress

  Mass of Ions in am
   POMASS =  12.01 16.00  1.00
  Ionic Valenz
   ZVAL   =   4.00  6.00  1.00
  Atomic Wigner-Seitz radii
   RWIGS  =  -1.00 -1.00 -1.00
  virtual crystal weights 
   VCA    =   1.00  1.00  1.00
   NELECT =      20.0000    total number of electrons
   NUPDOWN=      -1.0000    fix difference up-down

 DOS related values:
   EMIN   =  10.00;   EMAX   =-10.00  energy-range for DOS
   EFERMI =   0.00
   ISMEAR =     0;   SIGMA  =   0.01  broadening in eV -4-tet -1-fermi 0-gaus

 Electronic relaxation 2 (details)
   IALGO  =     38    algorithm
   LDIAG  =      T    sub-space diagonalisation (order eigenvalues)
   LSUBROT=      F    optimize rotation matrix (better conditioning)
   TURBO    =      0    0=normal 1=particle mesh
   IRESTART =      0    0=no restart 2=restart with 2 vectors
   NREBOOT  =      0    no. of reboots
   NMIN     =      0    reboot dimension
   EREF     =   0.00    reference energy to select bands
   IMIX   =      4    mixing-type and parameters
     AMIX     =   0.40;   BMIX     =  1.00
     AMIX_MAG =   1.60;   BMIX_MAG =  1.00
     AMIN     =   0.10
     WC   =   100.;   INIMIX=   1;  MIXPRE=   1;  MAXMIX= -45

 Intra band minimization:
   WEIMIN = 0.0010     energy-eigenvalue tresh-hold
   EBREAK =  0.16E-07  absolut break condition
   DEPER  =   0.30     relativ break condition  

   TIME   =   0.40     timestep for ELM

  volume/ion in A,a.u.               =     888.89      5998.52
  Fermi-wavevector in a.u.,A,eV,Ry     =   0.222188  0.419875  0.671689  0.049368
  Thomas-Fermi vector in A             =   1.005112
 
 Write flags
   LWAVE        =      T    write WAVECAR
   LDOWNSAMPLE  =      F    k-point downsampling of WAVECAR
   LCHARG       =      T    write CHGCAR
   LVTOT        =      F    write LOCPOT, total local potential
   LVHAR        =      F    write LOCPOT, Hartree potential only
   LELF         =      F    write electronic localiz. function (ELF)
   LORBIT       =      0    0 simple, 1 ext, 2 COOP (PROOUT), +10 PAW based schemes


 Dipole corrections
   LMONO  =      F    monopole corrections only (constant potential shift)
   LDIPOL =      F    correct potential (dipole corrections)
   IDIPOL =      0    1-x, 2-y, 3-z, 4-all directions 
   EPSILON=  1.0000000 bulk dielectric constant

 Exchange correlation treatment:
   GGA     =    --    GGA type
   LEXCH   =     8    internal setting for exchange type
   VOSKOWN=      0    Vosko Wilk Nusair interpolation
   LHFCALC =     F    Hartree Fock is set to
   LHFONE  =     F    Hartree Fock one center treatment
   AEXX    =    0.0000 exact exchange contribution

 Linear response parameters
   LEPSILON=     F    determine dielectric tensor
   LRPA    =     F    only Hartree local field effects (RPA)
   LNABLA  =     F    use nabla operator in PAW spheres
   LVEL    =     F    velocity operator in full k-point grid
   LINTERFAST=   F  fast interpolation
   KINTER  =     0    interpolate to denser k-point grid
   CSHIFT  =0.1000    complex shift for real part using Kramers Kronig
   OMEGAMAX=  -1.0    maximum frequency
   DEG_THRESHOLD= 0.2000000E-02 threshold for treating states as degnerate
   RTIME   =   -0.100 relaxation time in fs
  (WPLASMAI=    0.000 imaginary part of plasma frequency in eV, 0.658/RTIME)
   DFIELD  = 0.0000000 0.0000000 0.0000000 field for delta impulse in time
 
 Orbital magnetization related:
   ORBITALMAG=     F  switch on orbital magnetization
   LCHIMAG   =     F  perturbation theory with respect to B field
   DQ        =  0.001000  dq finite difference perturbation B field
   LLRAUG    =     F  two centre corrections for induced B field



--------------------------------------------------------------------------------------------------------


 finite differences
 charge density and potential will be updated during run
 non-spin polarized calculation
 Variant of blocked Davidson
 Davidson routine will perform the subspace rotation
 perform sub-space diagonalisation
    after iterative eigenvector-optimisation
 modified Broyden-mixing scheme, WC =      100.0
 initial mixing is a Kerker type mixing with AMIX =  0.4000 and BMIX =      1.0000
 Hartree-type preconditioning will be used
 using additional bands            6
 reciprocal scheme for non local part
 calculate Harris-corrections to forces 
   (improved forces if not selfconsistent)
 use gradient corrections 
 use of overlap-Matrix (Vanderbilt PP)
 Gauss-broadening in eV      SIGMA  =   0.01


--------------------------------------------------------------------------------------------------------


  energy-cutoff  :      400.00
  volume of cell :     8000.00
      direct lattice vectors                 reciprocal lattice vectors
    20.000000000  0.000000000  0.000000000     0.050000000  0.000000000  0.000000000
     0.000000000 20.000000000  0.000000000     0.000000000  0.050000000  0.000000000
     0.000000000  0.000000000 20.000000000     0.000000000  0.000000000  0.050000000

  length of vectors
    20.000000000 20.000000000 20.000000000     0.050000000  0.050000000  0.050000000


 
 k-points in units of 2pi/SCALE and weight: K-POINTS                                
   0.00000000  0.00000000  0.00000000       1.000
 
 k-points in reciprocal lattice and weights: K-POINTS                                
   0.00000000  0.00000000  0.00000000       1.000
 
 position of ions in fractional coordinates (direct lattice) 
   0.44803834  0.48392981  0.56624510
   0.50201855  0.51866612  0.60650646
   0.56538078  0.50525627  0.57537719
   0.45639237  0.42958358  0.56508508
   0.44744672  0.50233956  0.51442324
   0.39874774  0.49345860  0.58864180
   0.50175581  0.50005222  0.65865756
   0.49245143  0.57318022  0.60804901
   0.60021828  0.52746359  0.60001460
 
 position of ions in cartesian coordinates  (Angst):
   8.96076684  9.67859612 11.32490192
  10.04037092 10.37332235 12.13012925
  11.30761565 10.10512531 11.50754384
   9.12784748  8.59167163 11.30170166
   8.94893438 10.04679118 10.28846477
   7.97495482  9.86917193 11.77283602
  10.03511617 10.00104430 13.17315116
   9.84902850 11.46360434 12.16098019
  12.00436554 10.54927171 12.00029197
 


--------------------------------------------------------------------------------------------------------


 k-point  1 :   0.0000 0.0000 0.0000  plane waves:  145165

 maximum and minimum number of plane-waves per node :    145165   145165

 maximum number of plane-waves:    145165
 maximum index in each direction: 
   IXMAX=   32   IYMAX=   32   IZMAX=   32
   IXMIN=  -32   IYMIN=  -32   IZMIN=  -32


 serial   3D FFT for wavefunctions
 parallel 3D FFT for charge:
    minimum data exchange during FFTs selected (reduces bandwidth)


 total amount of memory used by VASP MPI-rank0   171681. kBytes
=======================================================================

   base      :      30000. kBytes
   nonl-proj :      48776. kBytes
   fftplans  :      20547. kBytes
   grid      :      70008. kBytes
   one-center:         27. kBytes
   wavefun   :       2323. kBytes
 
     INWAV:  cpu time    0.0000: real time    0.0000
 Broyden mixing: mesh for mixing (old mesh)
   NGX = 65   NGY = 65   NGZ = 65
  (NGX  =196   NGY  =196   NGZ  =196)
  gives a total of 274625 points

 initial charge density was supplied:
 charge density of overlapping atoms calculated
 number of electron      20.0000000 magnetization 
 keeping initial charge density in first step


--------------------------------------------------------------------------------------------------------


 Maximum index for augmentation-charges          150 (set IRDMAX)


--------------------------------------------------------------------------------------------------------


 First call to EWALD:  gamma=   0.089
 Maximum number of real-space cells 3x 3x 3
 Maximum number of reciprocal cells 3x 3x 3

    FEWALD:  cpu time    0.1290: real time    0.1288


--------------------------------------- Iteration      1(   1)  ---------------------------------------


    POTLOK:  cpu time    1.0358: real time    1.0365
    SETDIJ:  cpu time    0.0020: real time    0.0019
     EDDAV:  cpu time    1.8777: real time    1.8780
       DOS:  cpu time    0.0030: real time    0.0029
    --------------------------------------------
      LOOP:  cpu time    2.9186: real time    2.9194

 eigenvalue-minimisations  :    64
 total energy-change (2. order) : 0.8544516E+02  (-0.4051038E+03)
 number of electron      20.0000000 magnetization 
 augmentation part       20.0000000 magnetization 

 Free energy of the ion-electron system (eV)
  ---------------------------------------------------
  alpha Z        PSCENC =         0.19628184
  Ewald energy   TEWEN  =       923.86389917
  -Hartree energ DENC   =     -1496.86931817
  -exchange      EXHF   =         0.00000000
  -V(xc)+E(xc)   XCENC  =        69.04939254
  PAW double counting   =       326.34924307     -330.55393439
  entropy T*S    EENTRO =        -0.00000000
  eigenvalues    EBANDS =      -207.97984852
  atomic energy  EATOM  =       801.38943977
  Solvation  Ediel_sol  =         0.00000000
  ---------------------------------------------------
  free energy    TOTEN  =        85.44515531 eV

  energy without entropy =       85.44515531  energy(sigma->0) =       85.44515531


--------------------------------------------------------------------------------------------------------




--------------------------------------- Iteration      1(   2)  ---------------------------------------


     EDDAV:  cpu time    1.8767: real time    1.8781
       DOS:  cpu time    0.0010: real time    0.0012
    --------------------------------------------
      LOOP:  cpu time    1.8777: real time    1.8793

 eigenvalue-minimisations  :    64
 total energy-change (2. order) :-0.1163444E+03  (-0.1163444E+03)
 number of electron      20.0000000 magnetization 
 augmentation part       20.0000000 magnetization 

 Free energy of the ion-electron system (eV)
  ---------------------------------------------------
  alpha Z        PSCENC =         0.19628184
  Ewald energy   TEWEN  =       923.86389917
  -Hartree energ DENC   =     -1496.86931817
  -exchange      EXHF   =         0.00000000
  -V(xc)+E(xc)   XCENC  =        69.04939254
  PAW double counting   =       326.34924307     -330.55393439
  entropy T*S    EENTRO =        -0.00000000
  eigenvalues    EBANDS =      -324.32425060
  atomic energy  EATOM  =       801.38943977
  Solvation  Ediel_sol  =         0.00000000
  ---------------------------------------------------
  free energy    TOTEN  =       -30.89924676 eV

  energy without entropy =      -30.89924676  energy(sigma->0) =      -30.89924676


--------------------------------------------------------------------------------------------------------




--------------------------------------- Iteration      1(   3)  ---------------------------------------


     EDDAV:  cpu time    1.4808: real time    1.4810
       DOS:  cpu time    0.0010: real time    0.0009
    --------------------------------------------
      LOOP:  cpu time    1.4818: real time    1.4820

 eigenvalue-minimisations  :    48
 total energy-change (2. order) :-0.2087938E+02  (-0.2087938E+02)
 number of electron      20.0000000 magnetization 
 augmentation part       20.0000000 magnetization 

 Free energy of the ion-electron system (eV)
  ---------------------------------------------------
  alpha Z        PSCENC =         0.19628184
  Ewald energy   TEWEN  =       923.86389917
  -Hartree energ DENC   =     -1496.86931817
  -exchange      EXHF   =         0.00000000
  -V(xc)+E(xc)   XCENC  =        69.04939254
  PAW double counting   =       326.34924307     -330.55393439
  entropy T*S    EENTRO =        -0.00000000
  eigenvalues    EBANDS =      -345.20363470
  atomic energy  EATOM  =       801.38943977
  Solvation  Ediel_sol  =         0.00000000
  ---------------------------------------------------
  free energy    TOTEN  =       -51.77863087 eV

  energy without entropy =      -51.77863087  energy(sigma->0) =      -51.77863087


--------------------------------------------------------------------------------------------------------




--------------------------------------- Iteration      1(   4)  ---------------------------------------


     EDDAV:  cpu time    1.8777: real time    1.8780
       DOS:  cpu time    0.0010: real time    0.0012
    --------------------------------------------
      LOOP:  cpu time    1.8787: real time    1.8792

 eigenvalue-minimisations  :    64
 total energy-change (2. order) :-0.4193790E+00  (-0.4193790E+00)
 number of electron      20.0000000 magnetization 
 augmentation part       20.0000000 magnetization 

 Free energy of the ion-electron system (eV)
  ---------------------------------------------------
  alpha Z        PSCENC =         0.19628184
  Ewald energy   TEWEN  =       923.86389917
  -Hartree energ DENC   =     -1496.86931817
  -exchange      EXHF   =         0.00000000
  -V(xc)+E(xc)   XCENC  =        69.04939254
  PAW double counting   =       326.34924307     -330.55393439
  entropy T*S    EENTRO =        -0.00000000
  eigenvalues    EBANDS =      -345.62301370
  atomic energy  EATOM  =       801.38943977
  Solvation  Ediel_sol  =         0.00000000
  ---------------------------------------------------
  free energy    TOTEN  =       -52.19800986 eV

  energy without entropy =      -52.19800986  energy(sigma->0) =      -52.19800986


--------------------------------------------------------------------------------------------------------




--------------------------------------- Iteration      1(   5)  ---------------------------------------


     EDDAV:  cpu time    1.8787: real time    1.8791
       DOS:  cpu time    0.0020: real time    0.0012
    CHARGE:  cpu time    0.1690: real time    0.1695
    MIXING:  cpu time    0.0220: real time    0.0221
    --------------------------------------------
      LOOP:  cpu time    2.0717: real time    2.0719

 eigenvalue-minimisations  :    64
 total energy-change (2. order) :-0.1607093E-03  (-0.1607093E-03)
 number of electron      20.0000004 magnetization 
 augmentation part        1.1109954 magnetization 

 Broyden mixing:
  rms(total) = 0.11437E+01    rms(broyden)= 0.11416E+01
  rms(prec ) = 0.12662E+01
  weight for this iteration     100.00

 Free energy of the ion-electron system (eV)
  ---------------------------------------------------
  alpha Z        PSCENC =         0.19628184
  Ewald energy   TEWEN  =       923.86389917
  -Hartree energ DENC   =     -1496.86931817
  -exchange      EXHF   =         0.00000000
  -V(xc)+E(xc)   XCENC  =        69.04939254
  PAW double counting   =       326.34924307     -330.55393439
  entropy T*S    EENTRO =        -0.00000000
  eigenvalues    EBANDS =      -345.62317441
  atomic energy  EATOM  =       801.38943977
  Solvation  Ediel_sol  =         0.00000000
  ---------------------------------------------------
  free energy    TOTEN  =       -52.19817057 eV

  energy without entropy =      -52.19817057  energy(sigma->0) =      -52.19817057


--------------------------------------------------------------------------------------------------------




--------------------------------------- Iteration      1(   6)  ---------------------------------------


    POTLOK:  cpu time    0.8319: real time    0.8314
    SETDIJ:  cpu time    0.0030: real time    0.0029
     EDDAV:  cpu time    1.8767: real time    1.8772
       DOS:  cpu time    0.0030: real time    0.0031
    CHARGE:  cpu time    0.1680: real time    0.1682
    MIXING:  cpu time    0.0240: real time    0.0236
    --------------------------------------------
      LOOP:  cpu time    2.9066: real time    2.9063

 eigenvalue-minimisations  :    64
 total energy-change (2. order) : 0.4287428E+01  (-0.1229850E+01)
 number of electron      20.0000004 magnetization 
 augmentation part        0.9892761 magnetization 

 Broyden mixing:
  rms(total) = 0.53507E+00    rms(broyden)= 0.53481E+00
  rms(prec ) = 0.58272E+00
  weight for this iteration     100.00

 eigenvalues of (default mixing * dielectric matrix)
  average eigenvalue GAMMA=   1.2466
  1.2466

 Free energy of the ion-electron system (eV)
  ---------------------------------------------------
  alpha Z        PSCENC =         0.19628184
  Ewald energy   TEWEN  =       923.86389917
  -Hartree energ DENC   =     -1543.47702791
  -exchange      EXHF   =         0.00000000
  -V(xc)+E(xc)   XCENC  =        71.48648337
  PAW double counting   =       411.67975754     -416.42799345
  entropy T*S    EENTRO =        -0.00000000
  eigenvalues    EBANDS =      -296.62158311
  atomic energy  EATOM  =       801.38943977
  Solvation  Ediel_sol  =         0.00000000
  ---------------------------------------------------
  free energy    TOTEN  =       -47.91074279 eV

  energy without entropy =      -47.91074279  energy(sigma->0) =      -47.91074279


--------------------------------------------------------------------------------------------------------




--------------------------------------- Iteration      1(   7)  ---------------------------------------


    POTLOK:  cpu time    0.8329: real time    0.8335
    SETDIJ:  cpu time    0.0030: real time    0.0029
     EDDAV:  cpu time    1.4778: real time    1.4777
       DOS:  cpu time    0.0030: real time    0.0031
    CHARGE:  cpu time    0.1690: real time    0.1690
    MIXING:  cpu time    0.0230: real time    0.0229
    --------------------------------------------
      LOOP:  cpu time    2.5086: real time    2.5091

 eigenvalue-minimisations  :    48
 total energy-change (2. order) : 0.7890255E+00  (-0.1296526E+00)
 number of electron      20.0000005 magnetization 
 augmentation part        0.9719479 magnetization 

 Broyden mixing:
  rms(total) = 0.25947E+00    rms(broyden)= 0.25939E+00
  rms(prec ) = 0.28200E+00
  weight for this iteration     100.00

 eigenvalues of (default mixing * dielectric matrix)
  average eigenvalue GAMMA=   1.6233
  1.1737  2.0730

 Free energy of the ion-electron system (eV)
  ---------------------------------------------------
  alpha Z        PSCENC =         0.19628184
  Ewald energy   TEWEN  =       923.86389917
  -Hartree energ DENC   =     -1565.22769859
  -exchange      EXHF   =         0.00000000
  -V(xc)+E(xc)   XCENC  =        72.74709016
  PAW double counting   =       453.59603340     -458.41526540
  entropy T*S    EENTRO =        -0.00000000
  eigenvalues    EBANDS =      -275.27149760
  atomic energy  EATOM  =       801.38943977
  Solvation  Ediel_sol  =         0.00000000
  ---------------------------------------------------
  free energy    TOTEN  =       -47.12171725 eV

  energy without entropy =      -47.12171725  energy(sigma->0) =      -47.12171725


--------------------------------------------------------------------------------------------------------




--------------------------------------- Iteration      1(   8)  ---------------------------------------


    POTLOK:  cpu time    0.8359: real time    0.8365
    SETDIJ:  cpu time    0.0030: real time    0.0028
     EDDAV:  cpu time    1.8767: real time    1.8765
       DOS:  cpu time    0.0030: real time    0.0030
    CHARGE:  cpu time    0.1680: real time    0.1682
    MIXING:  cpu time    0.0240: real time    0.0241
    --------------------------------------------
      LOOP:  cpu time    2.9106: real time    2.9112

 eigenvalue-minimisations  :    64
 total energy-change (2. order) : 0.2359183E+00  (-0.2803897E-01)
 number of electron      20.0000005 magnetization 
 augmentation part        0.9646505 magnetization 

 Broyden mixing:
  rms(total) = 0.55307E-01    rms(broyden)= 0.55257E-01
  rms(prec ) = 0.69414E-01
  weight for this iteration     100.00

 eigenvalues of (default mixing * dielectric matrix)
  average eigenvalue GAMMA=   1.5645
  2.1864  1.0024  1.5047

 Free energy of the ion-electron system (eV)
  ---------------------------------------------------
  alpha Z        PSCENC =         0.19628184
  Ewald energy   TEWEN  =       923.86389917
  -Hartree energ DENC   =     -1580.10041128
  -exchange      EXHF   =         0.00000000
  -V(xc)+E(xc)   XCENC  =        73.68294335
  PAW double counting   =       479.79166386     -484.59148032
  entropy T*S    EENTRO =        -0.00000000
  eigenvalues    EBANDS =      -261.11813531
  atomic energy  EATOM  =       801.38943977
  Solvation  Ediel_sol  =         0.00000000
  ---------------------------------------------------
  free energy    TOTEN  =       -46.88579891 eV

  energy without entropy =      -46.88579891  energy(sigma->0) =      -46.88579891


--------------------------------------------------------------------------------------------------------




--------------------------------------- Iteration      1(   9)  ---------------------------------------


    POTLOK:  cpu time    0.8379: real time    0.8377
    SETDIJ:  cpu time    0.0020: real time    0.0029
     EDDAV:  cpu time    1.4778: real time    1.4780
       DOS:  cpu time    0.0040: real time    0.0031
    CHARGE:  cpu time    0.1680: real time    0.1686
    MIXING:  cpu time    0.0250: real time    0.0246
    --------------------------------------------
      LOOP:  cpu time    2.5146: real time    2.5150

 eigenvalue-minimisations  :    48
 total energy-change (2. order) : 0.2094404E-01  (-0.1606762E-02)
 number of electron      20.0000005 magnetization 
 augmentation part        0.9646531 magnetization 

 Broyden mixing:
  rms(total) = 0.22890E-01    rms(broyden)= 0.22878E-01
  rms(prec ) = 0.36609E-01
  weight for this iteration     100.00

 eigenvalues of (default mixing * dielectric matrix)
  average eigenvalue GAMMA=   1.6974
  1.0092  1.2054  2.2874  2.2874

 Free energy of the ion-electron system (eV)
  ---------------------------------------------------
  alpha Z        PSCENC =         0.19628184
  Ewald energy   TEWEN  =       923.86389917
  -Hartree energ DENC   =     -1583.82973618
  -exchange      EXHF   =         0.00000000
  -V(xc)+E(xc)   XCENC  =        73.84438514
  PAW double counting   =       481.00674911     -485.78218220
  entropy T*S    EENTRO =        -0.00000000
  eigenvalues    EBANDS =      -257.55369152
  atomic energy  EATOM  =       801.38943977
  Solvation  Ediel_sol  =         0.00000000
  ---------------------------------------------------
  free energy    TOTEN  =       -46.86485487 eV

  energy without entropy =      -46.86485487  energy(sigma->0) =      -46.86485487


--------------------------------------------------------------------------------------------------------




--------------------------------------- Iteration      1(  10)  ---------------------------------------


    POTLOK:  cpu time    0.8419: real time    0.8424
    SETDIJ:  cpu time    0.0030: real time    0.0028
     EDDAV:  cpu time    1.1818: real time    1.1824
       DOS:  cpu time    0.0030: real time    0.0030
    CHARGE:  cpu time    0.1690: real time    0.1681
    MIXING:  cpu time    0.0260: real time    0.0260
    --------------------------------------------
      LOOP:  cpu time    2.2247: real time    2.2248

 eigenvalue-minimisations  :    32
 total energy-change (2. order) : 0.8771651E-02  (-0.9306853E-03)
 number of electron      20.0000005 magnetization 
 augmentation part        0.9627313 magnetization 

 Broyden mixing:
  rms(total) = 0.10561E-01    rms(broyden)= 0.10555E-01
  rms(prec ) = 0.19174E-01
  weight for this iteration     100.00

 eigenvalues of (default mixing * dielectric matrix)
  average eigenvalue GAMMA=   1.7432
  2.8207  2.4664  0.9151  1.3729  1.1406

 Free energy of the ion-electron system (eV)
  ---------------------------------------------------
  alpha Z        PSCENC =         0.19628184
  Ewald energy   TEWEN  =       923.86389917
  -Hartree energ DENC   =     -1588.25512397
  -exchange      EXHF   =         0.00000000
  -V(xc)+E(xc)   XCENC  =        73.96547468
  PAW double counting   =       479.87390159     -484.63927605
  entropy T*S    EENTRO =        -0.00000000
  eigenvalues    EBANDS =      -253.25068025
  atomic energy  EATOM  =       801.38943977
  Solvation  Ediel_sol  =         0.00000000
  ---------------------------------------------------
  free energy    TOTEN  =       -46.85608322 eV

  energy without entropy =      -46.85608322  energy(sigma->0) =      -46.85608322


--------------------------------------------------------------------------------------------------------




--------------------------------------- Iteration      1(  11)  ---------------------------------------


    POTLOK:  cpu time    0.8449: real time    0.8453
    SETDIJ:  cpu time    0.0030: real time    0.0034
     EDDAV:  cpu time    1.4768: real time    1.4762
       DOS:  cpu time    0.0010: real time    0.0016
    CHARGE:  cpu time    0.1690: real time    0.1684
    MIXING:  cpu time    0.0250: real time    0.0254
    --------------------------------------------
      LOOP:  cpu time    2.5196: real time    2.5205

 eigenvalue-minimisations  :    48
 total energy-change (2. order) :-0.7808337E-03  (-0.2980105E-03)
 number of electron      20.0000005 magnetization 
 augmentation part        0.9624381 magnetization 

 Broyden mixing:
  rms(total) = 0.60556E-02    rms(broyden)= 0.60537E-02
  rms(prec ) = 0.11697E-01
  weight for this iteration     100.00

 eigenvalues of (default mixing * dielectric matrix)
  average eigenvalue GAMMA=   1.9342
  3.7329  2.4820  2.0262  1.3825  0.9041  1.0773

 Free energy of the ion-electron system (eV)
  ---------------------------------------------------
  alpha Z        PSCENC =         0.19628184
  Ewald energy   TEWEN  =       923.86389917
  -Hartree energ DENC   =     -1590.38883586
  -exchange      EXHF   =         0.00000000
  -V(xc)+E(xc)   XCENC  =        74.00111375
  PAW double counting   =       478.84064395     -483.60428047
  entropy T*S    EENTRO =        -0.00000000
  eigenvalues    EBANDS =      -251.15512620
  atomic energy  EATOM  =       801.38943977
  Solvation  Ediel_sol  =         0.00000000
  ---------------------------------------------------
  free energy    TOTEN  =       -46.85686405 eV

  energy without entropy =      -46.85686405  energy(sigma->0) =      -46.85686405


--------------------------------------------------------------------------------------------------------




--------------------------------------- Iteration      1(  12)  ---------------------------------------


    POTLOK:  cpu time    0.8519: real time    0.8521
    SETDIJ:  cpu time    0.0040: real time    0.0035
     EDDAV:  cpu time    1.4538: real time    1.4808
       DOS:  cpu time    0.0020: real time    0.0016
    CHARGE:  cpu time    0.1680: real time    0.1683
    MIXING:  cpu time    0.0270: real time    0.0265
    --------------------------------------------
      LOOP:  cpu time    2.5066: real time    2.5328

 eigenvalue-minimisations  :    48
 total energy-change (2. order) :-0.6447601E-02  (-0.2077709E-03)
 number of electron      20.0000005 magnetization 
 augmentation part        0.9624617 magnetization 

 Broyden mixing:
  rms(total) = 0.40010E-02    rms(broyden)= 0.40001E-02
  rms(prec ) = 0.65711E-02
  weight for this iteration     100.00

 eigenvalues of (default mixing * dielectric matrix)
  average eigenvalue GAMMA=   1.9985
  4.4757  2.6349  2.1927  0.9322  1.0222  1.4068  1.3251

 Free energy of the ion-electron system (eV)
  ---------------------------------------------------
  alpha Z        PSCENC =         0.19628184
  Ewald energy   TEWEN  =       923.86389917
  -Hartree energ DENC   =     -1592.00349581
  -exchange      EXHF   =         0.00000000
  -V(xc)+E(xc)   XCENC  =        74.01715043
  PAW double counting   =       478.34872027     -483.11149576
  entropy T*S    EENTRO =        -0.00000000
  eigenvalues    EBANDS =      -249.56381155
  atomic energy  EATOM  =       801.38943977
  Solvation  Ediel_sol  =         0.00000000
  ---------------------------------------------------
  free energy    TOTEN  =       -46.86331165 eV

  energy without entropy =      -46.86331165  energy(sigma->0) =      -46.86331165


--------------------------------------------------------------------------------------------------------




--------------------------------------- Iteration      1(  13)  ---------------------------------------


    POTLOK:  cpu time    0.8789: real time    0.8810
    SETDIJ:  cpu time    0.0030: real time    0.0035
     EDDAV:  cpu time    1.0798: real time    1.0799
       DOS:  cpu time    0.0020: real time    0.0016
    CHARGE:  cpu time    0.1690: real time    0.1686
    MIXING:  cpu time    0.0270: real time    0.0275
    --------------------------------------------
      LOOP:  cpu time    2.1597: real time    2.1622

 eigenvalue-minimisations  :    32
 total energy-change (2. order) :-0.5613939E-02  (-0.9764671E-04)
 number of electron      20.0000005 magnetization 
 augmentation part        0.9616829 magnetization 

 Broyden mixing:
  rms(total) = 0.25692E-02    rms(broyden)= 0.25667E-02
  rms(prec ) = 0.40920E-02
  weight for this iteration     100.00

 eigenvalues of (default mixing * dielectric matrix)
  average eigenvalue GAMMA=   2.1163
  5.4030  2.9620  2.2067  1.9530  0.9518  0.9518  1.2509  1.2509

 Free energy of the ion-electron system (eV)
  ---------------------------------------------------
  alpha Z        PSCENC =         0.19628184
  Ewald energy   TEWEN  =       923.86389917
  -Hartree energ DENC   =     -1592.63354926
  -exchange      EXHF   =         0.00000000
  -V(xc)+E(xc)   XCENC  =        74.01998097
  PAW double counting   =       478.54537665     -483.30913929
  entropy T*S    EENTRO =        -0.00000000
  eigenvalues    EBANDS =      -248.94121544
  atomic energy  EATOM  =       801.38943977
  Solvation  Ediel_sol  =         0.00000000
  ---------------------------------------------------
  free energy    TOTEN  =       -46.86892559 eV

  energy without entropy =      -46.86892559  energy(sigma->0) =      -46.86892559


--------------------------------------------------------------------------------------------------------




--------------------------------------- Iteration      1(  14)  ---------------------------------------


    POTLOK:  cpu time    0.8529: real time    0.8527
    SETDIJ:  cpu time    0.0030: real time    0.0037
     EDDAV:  cpu time    1.0828: real time    1.0825
       DOS:  cpu time    0.0020: real time    0.0016
    CHARGE:  cpu time    0.1670: real time    0.1679
    MIXING:  cpu time    0.0290: real time    0.0288
    --------------------------------------------
      LOOP:  cpu time    2.1367: real time    2.1372

 eigenvalue-minimisations  :    32
 total energy-change (2. order) :-0.4195677E-02  (-0.5674382E-04)
 number of electron      20.0000005 magnetization 
 augmentation part        0.9619535 magnetization 

 Broyden mixing:
  rms(total) = 0.10866E-02    rms(broyden)= 0.10858E-02
  rms(prec ) = 0.20643E-02
  weight for this iteration     100.00

 eigenvalues of (default mixing * dielectric matrix)
  average eigenvalue GAMMA=   2.1888
  6.0519  3.5633  2.3511  2.0752  1.4288  0.9699  0.9699  1.1445  1.1445

 Free energy of the ion-electron system (eV)
  ---------------------------------------------------
  alpha Z        PSCENC =         0.19628184
  Ewald energy   TEWEN  =       923.86389917
  -Hartree energ DENC   =     -1592.75610927
  -exchange      EXHF   =         0.00000000
  -V(xc)+E(xc)   XCENC  =        74.00981467
  PAW double counting   =       478.46695595     -483.22862814
  entropy T*S    EENTRO =        -0.00000000
  eigenvalues    EBANDS =      -248.81477527
  atomic energy  EATOM  =       801.38943977
  Solvation  Ediel_sol  =         0.00000000
  ---------------------------------------------------
  free energy    TOTEN  =       -46.87312127 eV

  energy without entropy =      -46.87312127  energy(sigma->0) =      -46.87312127


--------------------------------------------------------------------------------------------------------




--------------------------------------- Iteration      1(  15)  ---------------------------------------


    POTLOK:  cpu time    0.8529: real time    0.8530
    SETDIJ:  cpu time    0.0040: real time    0.0036
     EDDAV:  cpu time    1.4788: real time    1.4795
       DOS:  cpu time    0.0020: real time    0.0016
    CHARGE:  cpu time    0.1680: real time    0.1681
    MIXING:  cpu time    0.0300: real time    0.0303
    --------------------------------------------
      LOOP:  cpu time    2.5366: real time    2.5362

 eigenvalue-minimisations  :    48
 total energy-change (2. order) :-0.1885472E-02  (-0.2380741E-04)
 number of electron      20.0000005 magnetization 
 augmentation part        0.9619234 magnetization 

 Broyden mixing:
  rms(total) = 0.80694E-03    rms(broyden)= 0.80651E-03
  rms(prec ) = 0.13505E-02
  weight for this iteration     100.00

 eigenvalues of (default mixing * dielectric matrix)
  average eigenvalue GAMMA=   2.2321
  6.7040  3.8073  2.3706  2.3706  1.6336  1.2951  1.2951  0.9742  0.9742  0.8965

 Free energy of the ion-electron system (eV)
  ---------------------------------------------------
  alpha Z        PSCENC =         0.19628184
  Ewald energy   TEWEN  =       923.86389917
  -Hartree energ DENC   =     -1592.87179708
  -exchange      EXHF   =         0.00000000
  -V(xc)+E(xc)   XCENC  =        74.00835656
  PAW double counting   =       478.53460452     -483.29653489
  entropy T*S    EENTRO =        -0.00000000
  eigenvalues    EBANDS =      -248.69925663
  atomic energy  EATOM  =       801.38943977
  Solvation  Ediel_sol  =         0.00000000
  ---------------------------------------------------
  free energy    TOTEN  =       -46.87500674 eV

  energy without entropy =      -46.87500674  energy(sigma->0) =      -46.87500674


--------------------------------------------------------------------------------------------------------




--------------------------------------- Iteration      1(  16)  ---------------------------------------


    POTLOK:  cpu time    0.8529: real time    0.8527
    SETDIJ:  cpu time    0.0040: real time    0.0036
     EDDAV:  cpu time    1.0828: real time    1.0837
       DOS:  cpu time    0.0020: real time    0.0021
    CHARGE:  cpu time    0.1670: real time    0.1676
    MIXING:  cpu time    0.0320: real time    0.0318
    --------------------------------------------
      LOOP:  cpu time    2.1397: real time    2.1416

 eigenvalue-minimisations  :    32
 total energy-change (2. order) :-0.1043790E-02  (-0.8204879E-05)
 number of electron      20.0000005 magnetization 
 augmentation part        0.9618417 magnetization 

 Broyden mixing:
  rms(total) = 0.47435E-03    rms(broyden)= 0.47406E-03
  rms(prec ) = 0.76594E-03
  weight for this iteration     100.00

 eigenvalues of (default mixing * dielectric matrix)
  average eigenvalue GAMMA=   2.3117
  7.2856  4.5793  2.7100  2.3155  1.9325  1.3748  1.1707  1.1707  0.9209  0.9844
  0.9844

 Free energy of the ion-electron system (eV)
  ---------------------------------------------------
  alpha Z        PSCENC =         0.19628184
  Ewald energy   TEWEN  =       923.86389917
  -Hartree energ DENC   =     -1592.88195922
  -exchange      EXHF   =         0.00000000
  -V(xc)+E(xc)   XCENC  =        74.00570836
  PAW double counting   =       478.48892081     -483.25125425
  entropy T*S    EENTRO =        -0.00000000
  eigenvalues    EBANDS =      -248.68708701
  atomic energy  EATOM  =       801.38943977
  Solvation  Ediel_sol  =         0.00000000
  ---------------------------------------------------
  free energy    TOTEN  =       -46.87605053 eV

  energy without entropy =      -46.87605053  energy(sigma->0) =      -46.87605053


--------------------------------------------------------------------------------------------------------




--------------------------------------- Iteration      1(  17)  ---------------------------------------


    POTLOK:  cpu time    0.8499: real time    0.8498
    SETDIJ:  cpu time    0.0040: real time    0.0037
     EDDAV:  cpu time    1.8817: real time    1.8820
       DOS:  cpu time    0.0020: real time    0.0024
    CHARGE:  cpu time    0.1680: real time    0.1680
    MIXING:  cpu time    0.0330: real time    0.0328
    --------------------------------------------
      LOOP:  cpu time    2.9386: real time    2.9387

 eigenvalue-minimisations  :    64
 total energy-change (2. order) :-0.3911985E-03  (-0.2926820E-05)
 number of electron      20.0000005 magnetization 
 augmentation part        0.9618669 magnetization 

 Broyden mixing:
  rms(total) = 0.26426E-03    rms(broyden)= 0.26411E-03
  rms(prec ) = 0.45471E-03
  weight for this iteration     100.00

 eigenvalues of (default mixing * dielectric matrix)
  average eigenvalue GAMMA=   2.3175
  7.7394  4.8402  2.8512  2.4557  1.9515  1.4281  1.4281  1.2642  0.9682  0.9682
  0.9578  0.9578

 Free energy of the ion-electron system (eV)
  ---------------------------------------------------
  alpha Z        PSCENC =         0.19628184
  Ewald energy   TEWEN  =       923.86389917
  -Hartree energ DENC   =     -1592.89950863
  -exchange      EXHF   =         0.00000000
  -V(xc)+E(xc)   XCENC  =        74.00559683
  PAW double counting   =       478.49523288     -483.25730769
  entropy T*S    EENTRO =        -0.00000000
  eigenvalues    EBANDS =      -248.67007589
  atomic energy  EATOM  =       801.38943977
  Solvation  Ediel_sol  =         0.00000000
  ---------------------------------------------------
  free energy    TOTEN  =       -46.87644173 eV

  energy without entropy =      -46.87644173  energy(sigma->0) =      -46.87644173


--------------------------------------------------------------------------------------------------------




--------------------------------------- Iteration      1(  18)  ---------------------------------------


    POTLOK:  cpu time    0.8469: real time    0.8470
    SETDIJ:  cpu time    0.0030: real time    0.0034
     EDDAV:  cpu time    1.8817: real time    1.8818
       DOS:  cpu time    0.0020: real time    0.0024
    CHARGE:  cpu time    0.1680: real time    0.1680
    MIXING:  cpu time    0.0350: real time    0.0345
    --------------------------------------------
      LOOP:  cpu time    2.9366: real time    2.9372

 eigenvalue-minimisations  :    64
 total energy-change (2. order) :-0.2241646E-03  (-0.5288925E-06)
 number of electron      20.0000005 magnetization 
 augmentation part        0.9618913 magnetization 

 Broyden mixing:
  rms(total) = 0.21133E-03    rms(broyden)= 0.21124E-03
  rms(prec ) = 0.30329E-03
  weight for this iteration     100.00

 eigenvalues of (default mixing * dielectric matrix)
  average eigenvalue GAMMA=   2.4229
  8.2232  5.3714  3.5790  2.4513  2.4513  1.9089  1.3462  1.1501  1.1501  0.9399
  0.9399  0.9932  0.9932

 Free energy of the ion-electron system (eV)
  ---------------------------------------------------
  alpha Z        PSCENC =         0.19628184
  Ewald energy   TEWEN  =       923.86389917
  -Hartree energ DENC   =     -1592.90623256
  -exchange      EXHF   =         0.00000000
  -V(xc)+E(xc)   XCENC  =        74.00487131
  PAW double counting   =       478.47426863     -483.23631972
  entropy T*S    EENTRO =        -0.00000000
  eigenvalues    EBANDS =      -248.66287433
  atomic energy  EATOM  =       801.38943977
  Solvation  Ediel_sol  =         0.00000000
  ---------------------------------------------------
  free energy    TOTEN  =       -46.87666590 eV

  energy without entropy =      -46.87666590  energy(sigma->0) =      -46.87666590


--------------------------------------------------------------------------------------------------------




--------------------------------------- Iteration      1(  19)  ---------------------------------------


    POTLOK:  cpu time    0.8459: real time    0.8457
    SETDIJ:  cpu time    0.0030: real time    0.0037
     EDDAV:  cpu time    1.8827: real time    1.8827
       DOS:  cpu time    0.0020: real time    0.0023
    CHARGE:  cpu time    0.1690: real time    0.1682
    MIXING:  cpu time    0.0360: real time    0.0363
    --------------------------------------------
      LOOP:  cpu time    2.9386: real time    2.9390

 eigenvalue-minimisations  :    64
 total energy-change (2. order) :-0.1223885E-03  (-0.2998380E-06)
 number of electron      20.0000005 magnetization 
 augmentation part        0.9618474 magnetization 

 Broyden mixing:
  rms(total) = 0.11936E-03    rms(broyden)= 0.11922E-03
  rms(prec ) = 0.15974E-03
  weight for this iteration     100.00

 eigenvalues of (default mixing * dielectric matrix)
  average eigenvalue GAMMA=   2.4394
  8.5760  5.7944  3.8522  2.7653  2.2842  1.7789  1.6913  1.3572  1.1359  1.0328
  0.9289  0.9289  1.0125  1.0125

 Free energy of the ion-electron system (eV)
  ---------------------------------------------------
  alpha Z        PSCENC =         0.19628184
  Ewald energy   TEWEN  =       923.86389917
  -Hartree energ DENC   =     -1592.93119957
  -exchange      EXHF   =         0.00000000
  -V(xc)+E(xc)   XCENC  =        74.00549433
  PAW double counting   =       478.49090202     -483.25299656
  entropy T*S    EENTRO =        -0.00000000
  eigenvalues    EBANDS =      -248.63860928
  atomic energy  EATOM  =       801.38943977
  Solvation  Ediel_sol  =         0.00000000
  ---------------------------------------------------
  free energy    TOTEN  =       -46.87678828 eV

  energy without entropy =      -46.87678828  energy(sigma->0) =      -46.87678828


--------------------------------------------------------------------------------------------------------




--------------------------------------- Iteration      1(  20)  ---------------------------------------


    POTLOK:  cpu time    0.8459: real time    0.8462
    SETDIJ:  cpu time    0.0040: real time    0.0035
     EDDAV:  cpu time    1.8837: real time    1.8846
       DOS:  cpu time    0.0030: real time    0.0024
    CHARGE:  cpu time    0.1680: real time    0.1681
    MIXING:  cpu time    0.0390: real time    0.0390
    --------------------------------------------
      LOOP:  cpu time    2.9436: real time    2.9438

 eigenvalue-minimisations  :    64
 total energy-change (2. order) :-0.4403616E-04  (-0.5255153E-07)
 number of electron      20.0000005 magnetization 
 augmentation part        0.9618716 magnetization 

 Broyden mixing:
  rms(total) = 0.54384E-04    rms(broyden)= 0.54317E-04
  rms(prec ) = 0.79171E-04
  weight for this iteration     100.00

 eigenvalues of (default mixing * dielectric matrix)
  average eigenvalue GAMMA=   2.5090
  8.9054  6.2977  4.2753  3.0091  2.4131  2.4131  1.8593  1.3468  1.1468  1.1468
  1.0004  1.0004  0.9744  0.9236  0.9236

 Free energy of the ion-electron system (eV)
  ---------------------------------------------------
  alpha Z        PSCENC =         0.19628184
  Ewald energy   TEWEN  =       923.86389917
  -Hartree energ DENC   =     -1592.92762638
  -exchange      EXHF   =         0.00000000
  -V(xc)+E(xc)   XCENC  =        74.00508011
  PAW double counting   =       478.48276276     -483.24483005
  entropy T*S    EENTRO =        -0.00000000
  eigenvalues    EBANDS =      -248.64183954
  atomic energy  EATOM  =       801.38943977
  Solvation  Ediel_sol  =         0.00000000
  ---------------------------------------------------
  free energy    TOTEN  =       -46.87683232 eV

  energy without entropy =      -46.87683232  energy(sigma->0) =      -46.87683232


--------------------------------------------------------------------------------------------------------




--------------------------------------- Iteration      1(  21)  ---------------------------------------


    POTLOK:  cpu time    0.8549: real time    0.8554
    SETDIJ:  cpu time    0.0020: real time    0.0019
     EDDAV:  cpu time    1.0808: real time    1.0808
       DOS:  cpu time    0.0030: real time    0.0028
    CHARGE:  cpu time    0.1690: real time    0.1692
    MIXING:  cpu time    0.0420: real time    0.0420
    --------------------------------------------
      LOOP:  cpu time    2.1517: real time    2.1520

 eigenvalue-minimisations  :    32
 total energy-change (2. order) :-0.2565431E-04  (-0.2284862E-07)
 number of electron      20.0000005 magnetization 
 augmentation part        0.9618661 magnetization 

 Broyden mixing:
  rms(total) = 0.22234E-04    rms(broyden)= 0.22226E-04
  rms(prec ) = 0.34062E-04
  weight for this iteration     100.00

 eigenvalues of (default mixing * dielectric matrix)
  average eigenvalue GAMMA=   2.5364
  9.2424  6.5765  4.6786  3.2543  2.5099  2.2761  1.9289  1.6835  1.3805  1.2029
  0.9976  0.9976  1.0414  0.9262  0.9262  0.9590

 Free energy of the ion-electron system (eV)
  ---------------------------------------------------
  alpha Z        PSCENC =         0.19628184
  Ewald energy   TEWEN  =       923.86389917
  -Hartree energ DENC   =     -1592.93244944
  -exchange      EXHF   =         0.00000000
  -V(xc)+E(xc)   XCENC  =        74.00519596
  PAW double counting   =       478.48811354     -483.25019858
  entropy T*S    EENTRO =        -0.00000000
  eigenvalues    EBANDS =      -248.63714023
  atomic energy  EATOM  =       801.38943977
  Solvation  Ediel_sol  =         0.00000000
  ---------------------------------------------------
  free energy    TOTEN  =       -46.87685797 eV

  energy without entropy =      -46.87685797  energy(sigma->0) =      -46.87685797


--------------------------------------------------------------------------------------------------------




--------------------------------------- Iteration      1(  22)  ---------------------------------------


    POTLOK:  cpu time    0.8609: real time    0.8609
    SETDIJ:  cpu time    0.0010: real time    0.0019
     EDDAV:  cpu time    1.4768: real time    1.4769
       DOS:  cpu time    0.0030: real time    0.0029
    CHARGE:  cpu time    0.1690: real time    0.1692
    MIXING:  cpu time    0.0470: real time    0.0462
    --------------------------------------------
      LOOP:  cpu time    2.5576: real time    2.5579

 eigenvalue-minimisations  :    48
 total energy-change (2. order) :-0.7306386E-05  (-0.4490014E-08)
 number of electron      20.0000005 magnetization 
 augmentation part        0.9618658 magnetization 

 Broyden mixing:
  rms(total) = 0.15216E-04    rms(broyden)= 0.15212E-04
  rms(prec ) = 0.21323E-04
  weight for this iteration     100.00

 eigenvalues of (default mixing * dielectric matrix)
  average eigenvalue GAMMA=   2.5536
  9.4375  6.8010  4.9484  3.5299  2.7803  2.2779  2.2779  1.8699  1.3184  1.1879
  1.1879  0.9948  0.9948  0.9336  0.9336  0.9687  0.9687

 Free energy of the ion-electron system (eV)
  ---------------------------------------------------
  alpha Z        PSCENC =         0.19628184
  Ewald energy   TEWEN  =       923.86389917
  -Hartree energ DENC   =     -1592.93332464
  -exchange      EXHF   =         0.00000000
  -V(xc)+E(xc)   XCENC  =        74.00520257
  PAW double counting   =       478.48794967     -483.25002706
  entropy T*S    EENTRO =        -0.00000000
  eigenvalues    EBANDS =      -248.63628659
  atomic energy  EATOM  =       801.38943977
  Solvation  Ediel_sol  =         0.00000000
  ---------------------------------------------------
  free energy    TOTEN  =       -46.87686528 eV

  energy without entropy =      -46.87686528  energy(sigma->0) =      -46.87686528


--------------------------------------------------------------------------------------------------------




--------------------------------------- Iteration      1(  23)  ---------------------------------------


    POTLOK:  cpu time    0.8559: real time    0.8565
    SETDIJ:  cpu time    0.0020: real time    0.0019
     EDDAV:  cpu time    1.0778: real time    1.0779
       DOS:  cpu time    0.0030: real time    0.0029
    CHARGE:  cpu time    0.1690: real time    0.1688
    MIXING:  cpu time    0.0510: real time    0.0510
    --------------------------------------------
      LOOP:  cpu time    2.1587: real time    2.1589

 eigenvalue-minimisations  :    32
 total energy-change (2. order) :-0.2834357E-05  (-0.2189797E-08)
 number of electron      20.0000005 magnetization 
 augmentation part        0.9618639 magnetization 

 Broyden mixing:
  rms(total) = 0.74905E-05    rms(broyden)= 0.74796E-05
  rms(prec ) = 0.11201E-04
  weight for this iteration     100.00

 eigenvalues of (default mixing * dielectric matrix)
  average eigenvalue GAMMA=   2.5802
  9.5563  6.9995  5.1463  3.9490  2.8425  2.5238  2.1264  2.1264  1.7685  1.3404
  1.2103  1.0046  1.0046  1.0943  0.9693  0.9201  0.9303  0.9303

 Free energy of the ion-electron system (eV)
  ---------------------------------------------------
  alpha Z        PSCENC =         0.19628184
  Ewald energy   TEWEN  =       923.86389917
  -Hartree energ DENC   =     -1592.93357992
  -exchange      EXHF   =         0.00000000
  -V(xc)+E(xc)   XCENC  =        74.00520871
  PAW double counting   =       478.48743993     -483.24951743
  entropy T*S    EENTRO =        -0.00000000
  eigenvalues    EBANDS =      -248.63604018
  atomic energy  EATOM  =       801.38943977
  Solvation  Ediel_sol  =         0.00000000
  ---------------------------------------------------
  free energy    TOTEN  =       -46.87686811 eV

  energy without entropy =      -46.87686811  energy(sigma->0) =      -46.87686811


--------------------------------------------------------------------------------------------------------




--------------------------------------- Iteration      1(  24)  ---------------------------------------


    POTLOK:  cpu time    0.8519: real time    0.8520
    SETDIJ:  cpu time    0.0020: real time    0.0020
     EDDAV:  cpu time    1.4618: real time    1.4758
       DOS:  cpu time    0.0030: real time    0.0029
    CHARGE:  cpu time    0.1700: real time    0.1697
    MIXING:  cpu time    0.0600: real time    0.0603
    --------------------------------------------
      LOOP:  cpu time    2.5486: real time    2.5628

 eigenvalue-minimisations  :    48
 total energy-change (2. order) :-0.1204033E-05  (-0.7014727E-09)
 number of electron      20.0000005 magnetization 
 augmentation part        0.9618638 magnetization 

 Broyden mixing:
  rms(total) = 0.76585E-05    rms(broyden)= 0.76567E-05
  rms(prec ) = 0.91731E-05
  weight for this iteration     100.00

 eigenvalues of (default mixing * dielectric matrix)
  average eigenvalue GAMMA=   2.5779
  9.6049  7.1272  5.3492  4.1961  3.0903  2.6482  2.3167  2.0873  1.8918  1.3406
  1.2524  1.2524  1.0063  1.0063  1.0158  1.0158  0.9186  0.9299  0.9299

 Free energy of the ion-electron system (eV)
  ---------------------------------------------------
  alpha Z        PSCENC =         0.19628184
  Ewald energy   TEWEN  =       923.86389917
  -Hartree energ DENC   =     -1592.93323514
  -exchange      EXHF   =         0.00000000
  -V(xc)+E(xc)   XCENC  =        74.00518868
  PAW double counting   =       478.48720637     -483.24928396
  entropy T*S    EENTRO =        -0.00000000
  eigenvalues    EBANDS =      -248.63636605
  atomic energy  EATOM  =       801.38943977
  Solvation  Ediel_sol  =         0.00000000
  ---------------------------------------------------
  free energy    TOTEN  =       -46.87686932 eV

  energy without entropy =      -46.87686932  energy(sigma->0) =      -46.87686932


--------------------------------------------------------------------------------------------------------




--------------------------------------- Iteration      1(  25)  ---------------------------------------


    POTLOK:  cpu time    0.8989: real time    0.8996
    SETDIJ:  cpu time    0.0020: real time    0.0019
     EDDAV:  cpu time    1.0808: real time    1.0813
       DOS:  cpu time    0.0030: real time    0.0029
    --------------------------------------------
      LOOP:  cpu time    1.9847: real time    1.9857

 eigenvalue-minimisations  :    32
 total energy-change (2. order) :-0.7003724E-06  (-0.4587992E-09)
 number of electron      20.0000005 magnetization 
 augmentation part        0.9618638 magnetization 

 Free energy of the ion-electron system (eV)
  ---------------------------------------------------
  alpha Z        PSCENC =         0.19628184
  Ewald energy   TEWEN  =       923.86389917
  -Hartree energ DENC   =     -1592.93323959
  -exchange      EXHF   =         0.00000000
  -V(xc)+E(xc)   XCENC  =        74.00518353
  PAW double counting   =       478.48709788     -483.24917386
  entropy T*S    EENTRO =        -0.00000000
  eigenvalues    EBANDS =      -248.63635876
  atomic energy  EATOM  =       801.38943977
  Solvation  Ediel_sol  =         0.00000000
  ---------------------------------------------------
  free energy    TOTEN  =       -46.87687002 eV

  energy without entropy =      -46.87687002  energy(sigma->0) =      -46.87687002


--------------------------------------------------------------------------------------------------------




 average (electrostatic) potential at core
  the test charge radii are     0.6991  0.7215  0.5201
  (the norm of the test charge is              1.0000)
       1 -58.2669       2 -59.5739       3 -80.3655       4 -41.5473       5 -41.5455
       6 -41.7473       7 -41.6979       8 -41.7035       9 -44.6091
 
 
 
 E-fermi :  -6.0865     XC(G=0):  -0.1771     alpha+bet : -0.0552


 k-point     1 :       0.0000    0.0000    0.0000
  band No.  band energies     occupation 
      1     -25.3704      2.00000
      2     -18.4982      2.00000
      3     -14.9342      2.00000
      4     -12.6778      2.00000
      5     -11.2321      2.00000
      6      -9.7076      2.00000
      7      -9.2103      2.00000
      8      -8.6681      2.00000
      9      -7.8513      2.00000
     10      -6.1681      2.00000
     11      -0.6323      0.00000
     12      -0.1348      0.00000
     13       0.0782      0.00000
     14       0.1639      0.00000
     15       0.1756      0.00000
     16       0.3329      0.00000


--------------------------------------------------------------------------------------------------------


 soft charge-density along one line, spin component           1
         0         1         2         3         4         5         6         7         8         9
 total charge-density along one line
 
 pseudopotential strength for first ion, spin component:           1
 10.230   0.019   0.000   0.000  -0.000  -0.000  -0.000   0.000
  0.019  -0.002  -0.000  -0.000   0.000  -0.000  -0.000   0.000
  0.000  -0.000  -4.346  -0.000  -0.000  -0.016   0.000   0.000
  0.000  -0.000  -0.000  -4.346   0.000   0.000  -0.016   0.000
 -0.000   0.000  -0.000   0.000  -4.347   0.000   0.000  -0.016
 -0.000  -0.000  -0.016   0.000   0.000  -0.772  -0.000  -0.000
 -0.000  -0.000   0.000  -0.016   0.000  -0.000  -0.772  -0.000
  0.000   0.000   0.000   0.000  -0.016  -0.000  -0.000  -0.772
 total augmentation occupancy for first ion, spin component:           1
  1.431  -1.122  -0.008  -0.011  -0.002  -0.001  -0.001  -0.002
 -1.122   0.946  -0.005  -0.008  -0.002  -0.007  -0.009  -0.008
 -0.008  -0.005   1.138  -0.017  -0.015   0.191   0.001   0.001
 -0.011  -0.008  -0.017   1.130  -0.017   0.001   0.192   0.001
 -0.002  -0.002  -0.015  -0.017   1.119   0.001   0.001   0.192
 -0.001  -0.007   0.191   0.001   0.001   0.033   0.001   0.001
 -0.001  -0.009   0.001   0.192   0.001   0.001   0.034   0.002
 -0.002  -0.008   0.001   0.001   0.192   0.001   0.002   0.035


------------------------ aborting loop because EDIFF is reached ----------------------------------------


    CHARGE:  cpu time    0.1700: real time    0.1693
    FORLOC:  cpu time    0.0570: real time    0.0566
    FORNL :  cpu time    0.1630: real time    0.1649
    STRESS:  cpu time    2.5856: real time    2.5859
    FORHAR:  cpu time    0.2500: real time    0.2501
    MIXING:  cpu time    0.0690: real time    0.0692
    OFIELD:  cpu time    0.0010: real time    0.0001

  FORCE on cell =-STRESS in cart. coord.  units (eV):
  Direction    XX          YY          ZZ          XY          YZ          ZX
  --------------------------------------------------------------------------------------
  Alpha Z     0.19628     0.19628     0.19628
  Ewald     595.78576   138.48475   189.59329    78.55601    86.50815    15.41728
  Hartree   725.35106   419.21309   448.36938    50.14209    49.28015     9.26801
  E(xc)     -77.70909   -78.17587   -78.08590     0.09032     0.14816     0.01500
  Local   -1502.88767  -761.70761  -837.59984  -124.59896  -128.54679   -24.40135
  n-local   -48.11406   -51.41060   -50.80651    -0.09725     0.57486    -0.83589
  augment     5.55743     7.41819     7.02147    -0.30719    -0.61816     0.02678
  Kinetic   300.85035   324.73661   320.15490    -3.64422    -7.14396     0.63801
  Fock        0.00000     0.00000     0.00000     0.00000     0.00000     0.00000
  -------------------------------------------------------------------------------------
  Total      -0.96993    -1.24518    -1.15692     0.14081     0.20241     0.12784
  in kB      -0.19425    -0.24938    -0.23170     0.02820     0.04054     0.02560
  external pressure =       -0.23 kB  Pullay stress =        0.00 kB


 VOLUME and BASIS-vectors are now :
 -----------------------------------------------------------------------------
  energy-cutoff  :      400.00
  volume of cell :     8000.00
      direct lattice vectors                 reciprocal lattice vectors
    20.000000000  0.000000000  0.000000000     0.050000000  0.000000000  0.000000000
     0.000000000 20.000000000  0.000000000     0.000000000  0.050000000  0.000000000
     0.000000000  0.000000000 20.000000000     0.000000000  0.000000000  0.050000000

  length of vectors
    20.000000000 20.000000000 20.000000000     0.050000000  0.050000000  0.050000000


 FORCES acting on ions
    electron-ion (+dipol)            ewald-force                    non-local-force                 convergence-correction
 -----------------------------------------------------------------------------------------------
   0.111E+03 0.469E+02 0.472E+02   -.110E+03 -.472E+02 -.477E+02   -.234E+00 0.309E+00 0.494E+00   -.113E-04 0.119E-04 0.195E-04
   0.541E+02 -.591E+02 -.957E+02   -.591E+02 0.601E+02 0.981E+02   0.502E+01 -.103E+01 -.244E+01   -.370E-04 0.215E-04 0.387E-04
   -.190E+03 0.411E+02 0.934E+02   0.192E+03 -.676E+02 -.131E+03   -.270E+01 0.262E+02 0.375E+02   0.133E-04 0.577E-04 0.817E-04
   0.735E+01 0.687E+02 0.740E+01   -.651E+01 -.741E+02 -.755E+01   -.837E+00 0.543E+01 0.161E+00   -.201E-05 -.181E-05 0.229E-05
   0.177E+02 -.147E+02 0.655E+02   -.177E+02 0.165E+02 -.707E+02   0.509E-01 -.180E+01 0.520E+01   -.260E-05 0.230E-05 -.646E-06
   0.668E+02 -.498E+01 -.190E+02   -.718E+02 0.589E+01 0.212E+02   0.493E+01 -.912E+00 -.218E+01   -.574E-06 0.114E-05 0.176E-05
   0.437E+01 0.160E+02 -.732E+02   -.441E+01 -.178E+02 0.784E+02   0.493E-01 0.185E+01 -.517E+01   -.123E-05 0.344E-05 -.441E-05
   0.157E+02 -.724E+02 -.121E+02   -.166E+02 0.778E+02 0.122E+02   0.973E+00 -.540E+01 -.151E+00   0.833E-07 -.589E-05 0.163E-05
   -.877E+02 -.422E+02 -.428E+02   0.945E+02 0.463E+02 0.473E+02   -.644E+01 -.385E+01 -.419E+01   0.130E-04 0.122E-04 0.150E-04
 -----------------------------------------------------------------------------------------------
   -.822E+00 -.208E+02 -.293E+02   0.142E-13 0.355E-13 0.426E-13   0.821E+00 0.208E+02 0.292E+02   -.283E-04 0.103E-03 0.156E-03
 
 
 POSITION                                       TOTAL-FORCE (eV/Angst)
 -----------------------------------------------------------------------------------
      8.96077      9.67860     11.32490         0.026668     -0.010309     -0.016606
     10.04037     10.37332     12.13013         0.036038      0.024159      0.020745
     11.30762     10.10513     11.50754        -0.406909     -0.275462     -0.330228
      9.12785      8.59167     11.30170         0.009330      0.011798      0.007840
      8.94893     10.04679     10.28846         0.007622      0.002304      0.014483
      7.97495      9.86917     11.77284        -0.025443     -0.006278      0.000826
     10.03512     10.00104     13.17315         0.008335      0.009425     -0.012822
      9.84903     11.46360     12.16098         0.005165     -0.016427      0.006078
     12.00437     10.54927     12.00029         0.339194      0.260788      0.309683
 -----------------------------------------------------------------------------------
    total drift:                               -0.000955      0.010605     -0.006633


--------------------------------------------------------------------------------------------------------



  FREE ENERGIE OF THE ION-ELECTRON SYSTEM (eV)
  ---------------------------------------------------
  free  energy   TOTEN  =       -46.87687002 eV

  energy  without entropy=      -46.87687002  energy(sigma->0) =      -46.87687002
 


--------------------------------------------------------------------------------------------------------


    POTLOK:  cpu time    0.8809: real time    0.8811


--------------------------------------------------------------------------------------------------------


 stress matrix after NEB project (eV)
     -0.96993      0.14081      0.12784
      0.14081     -1.24518      0.20241
      0.12784      0.20241     -1.15692
  FORCES: max atom, RMS     0.592034    0.265577
  FORCE total and by dimension    0.796732    0.406909
  Stress total and by dimension    1.995996    1.245182
 Finite differences:
   Step               POTIM =   2.000000000000000E-002
   Degrees of freedom DOF   =           27
  LATTYP: Found a simple cubic cell.
 ALAT       =    20.0000000000
  
  Lattice vectors:
  
 A1 = (  20.0000000000,   0.0000000000,   0.0000000000)
 A2 = (   0.0000000000,  20.0000000000,   0.0000000000)
 A3 = (   0.0000000000,   0.0000000000,  20.0000000000)


[...]
     10.035116 10.001044 13.173151    -0.177142    0.574161    0.184715  
      9.849029 11.463604 12.160980    -0.099136   -0.053320    0.614882  
     12.004366 10.549272 12.000292     0.002090   -0.001363   -0.001785  
 
   8 f  =   43.482575 THz   273.209078 2PiTHz 1450.422545 cm-1   179.829541 meV
             X         Y         Z           dx          dy          dz
      8.960767  9.678596 11.324902    -0.060042    0.075162    0.120328  
     10.040371 10.373322 12.130129    -0.102040   -0.050822   -0.054262  
     11.307616 10.105125 11.507544     0.021764   -0.004773   -0.011244  
      9.127847  8.591672 11.301702     0.100659    0.040332   -0.587851  
      8.948934 10.046791 10.288465     0.170141   -0.541535   -0.180893  
      7.974955  9.869172 11.772836     0.115488    0.172956    0.221863  
     10.035116 10.001044 13.173151     0.023542    0.260945    0.095912  
      9.849029 11.463604 12.160980     0.056487    0.004889    0.271629  
     12.004366 10.549272 12.000292     0.009078   -0.003148   -0.006061  
 
   9 f  =   42.889892 THz   269.485142 2PiTHz 1430.652772 cm-1   177.378401 meV
             X         Y         Z           dx          dy          dz
      8.960767  9.678596 11.324902    -0.014947    0.126432   -0.084157  
     10.040371 10.373322 12.130129    -0.007794    0.071221   -0.049061  
     11.307616 10.105125 11.507544     0.001114   -0.007081    0.004432  
      9.127847  8.591672 11.301702    -0.482647   -0.055878    0.081479  
      8.948934 10.046791 10.288465     0.491964   -0.023492   -0.034004  
      7.974955  9.869172 11.772836     0.067804   -0.566274    0.390339  
     10.035116 10.001044 13.173151    -0.019836   -0.031609   -0.034518  
      9.849029 11.463604 12.160980     0.017487    0.024161    0.038558  
     12.004366 10.549272 12.000292     0.000347   -0.006172    0.005024  
 
  10 f  =   41.648906 THz   261.687796 2PiTHz 1389.257930 cm-1   172.246093 meV
             X         Y         Z           dx          dy          dz
      8.960767  9.678596 11.324902     0.234000    0.079170    0.070066  
     10.040371 10.373322 12.130129    -0.426598   -0.162531   -0.152540  
     11.307616 10.105125 11.507544    -0.010783    0.100199    0.143931  
      9.127847  8.591672 11.301702    -0.200984   -0.017915    0.019389  
      8.948934 10.046791 10.288465    -0.202147   -0.009895    0.012209  
      7.974955  9.869172 11.772836    -0.048555   -0.120828   -0.161271  
     10.035116 10.001044 13.173151     0.471849    0.084360   -0.005466  
      9.849029 11.463604 12.160980     0.479181    0.046284    0.017081  
     12.004366 10.549272 12.000292     0.211387   -0.095621   -0.175194  
 
  11 f  =   40.431425 THz   254.038135 2PiTHz 1348.647127 cm-1   167.210993 meV
             X         Y         Z           dx          dy          dz
      8.960767  9.678596 11.324902    -0.270060   -0.195947   -0.234428  
     10.040371 10.373322 12.130129    -0.156378   -0.033707   -0.020085  
     11.307616 10.105125 11.507544    -0.000932    0.038913    0.055372  
      9.127847  8.591672 11.301702     0.376542    0.019963    0.231072  
      8.948934 10.046791 10.288465     0.353675    0.269225    0.057038  
      7.974955  9.869172 11.772836     0.206559    0.291365    0.387738  
     10.035116 10.001044 13.173151     0.239929    0.050269    0.015384  
      9.849029 11.463604 12.160980     0.243642    0.038587    0.023696  
     12.004366 10.549272 12.000292     0.063396   -0.026429   -0.048808  
 
  12 f  =   37.585244 THz   236.155055 2PiTHz 1253.708766 cm-1   155.440132 meV
             X         Y         Z           dx          dy          dz
      8.960767  9.678596 11.324902     0.029834   -0.237107    0.164005  
     10.040371 10.373322 12.130129    -0.007901    0.073778   -0.051936  
     11.307616 10.105125 11.507544    -0.011591    0.088734   -0.060711  
      9.127847  8.591672 11.301702    -0.119541   -0.079318   -0.187612  
      8.948934 10.046791 10.288465     0.106546    0.167953    0.126384  
      7.974955  9.869172 11.772836    -0.012629    0.100441   -0.071109  
     10.035116 10.001044 13.173151    -0.611405   -0.100818   -0.047236  
      9.849029 11.463604 12.160980     0.607234    0.113167    0.039947  
     12.004366 10.549272 12.000292     0.000036    0.008766   -0.007397  
 
  13 f  =   35.856008 THz   225.289940 2PiTHz 1196.027638 cm-1   148.288581 meV
             X         Y         Z           dx          dy          dz
      8.960767  9.678596 11.324902    -0.097752    0.166963    0.245908  
     10.040371 10.373322 12.130129    -0.042503   -0.206681   -0.269646  
     11.307616 10.105125 11.507544     0.040690    0.131353    0.172968  
      9.127847  8.591672 11.301702     0.235005    0.087210    0.011511  
      8.948934 10.046791 10.288465     0.236953    0.011498    0.052852  
      7.974955  9.869172 11.772836    -0.104932   -0.068751   -0.075630  
     10.035116 10.001044 13.173151    -0.258162   -0.101299   -0.097854  
      9.849029 11.463604 12.160980    -0.249461   -0.104341   -0.113187  
     12.004366 10.549272 12.000292     0.464163   -0.217161   -0.396891  
 
  14 f  =   34.002738 THz   213.645506 2PiTHz 1134.209233 cm-1   140.624073 meV
             X         Y         Z           dx          dy          dz
      8.960767  9.678596 11.324902    -0.033178    0.250960   -0.182677  
     10.040371 10.373322 12.130129     0.056669   -0.393009    0.283452  
     11.307616 10.105125 11.507544    -0.020393    0.136892   -0.099954  
      9.127847  8.591672 11.301702     0.145674    0.079791    0.232989  
      8.948934 10.046791 10.288465    -0.136232   -0.216609   -0.143286  
      7.974955  9.869172 11.772836     0.019828   -0.154638    0.108993  
     10.035116 10.001044 13.173151    -0.285926    0.285280    0.225391  
      9.849029 11.463604 12.160980     0.267543   -0.059084   -0.376941  
     12.004366 10.549272 12.000292    -0.010610    0.008871    0.006068  
 
  15 f  =   32.102486 THz   201.705867 2PiTHz 1070.823630 cm-1   132.765257 meV
             X         Y         Z           dx          dy          dz
      8.960767  9.678596 11.324902     0.239877   -0.019894   -0.074783  
     10.040371 10.373322 12.130129    -0.556436    0.111094    0.266734  
     11.307616 10.105125 11.507544     0.383005   -0.103350   -0.222021  
      9.127847  8.591672 11.301702    -0.139072   -0.032715    0.067322  
      8.948934 10.046791 10.288465    -0.148948    0.047160    0.007020  
      7.974955  9.869172 11.772836     0.188978    0.160754    0.200532  
     10.035116 10.001044 13.173151    -0.256594   -0.017731    0.047911  
      9.849029 11.463604 12.160980    -0.256702    0.006244    0.028833  
     12.004366 10.549272 12.000292     0.176591   -0.062769   -0.123222  
 
  16 f  =   29.467034 THz   185.146836 2PiTHz  982.914426 cm-1   121.865901 meV
             X         Y         Z           dx          dy          dz
      8.960767  9.678596 11.324902    -0.199573   -0.264230   -0.341663  
     10.040371 10.373322 12.130129     0.338633    0.215396    0.248043  
     11.307616 10.105125 11.507544    -0.109320    0.103409    0.167797  
      9.127847  8.591672 11.301702    -0.243649   -0.104987   -0.088444  
      8.948934 10.046791 10.288465    -0.243487   -0.084038   -0.099484  
      7.974955  9.869172 11.772836     0.019734    0.034048    0.046398  
     10.035116 10.001044 13.173151     0.017652    0.054837    0.072455  
      9.849029 11.463604 12.160980     0.012503    0.050901    0.073320  
     12.004366 10.549272 12.000292     0.393256   -0.200986   -0.361017  
 
  17 f  =   26.198734 THz   164.611499 2PiTHz  873.895663 cm-1   108.349292 meV
             X         Y         Z           dx          dy          dz
      8.960767  9.678596 11.324902     0.455363    0.057702   -0.001951  
     10.040371 10.373322 12.130129     0.138997   -0.173838   -0.273585  
     11.307616 10.105125 11.507544    -0.451211    0.064035    0.174895  
      9.127847  8.591672 11.301702    -0.160653   -0.025857    0.051751  
      8.948934 10.046791 10.288465    -0.164123    0.027970    0.010431  
      7.974955  9.869172 11.772836     0.339178    0.289795    0.355667  
     10.035116 10.001044 13.173151    -0.107969   -0.058438   -0.072315  
      9.849029 11.463604 12.160980    -0.106766   -0.066505   -0.067811  
     12.004366 10.549272 12.000292    -0.050825   -0.020102   -0.020696  
 
  18 f  =   23.806001 THz   149.577514 2PiTHz  794.082683 cm-1    98.453740 meV
             X         Y         Z           dx          dy          dz
      8.960767  9.678596 11.324902    -0.016665    0.128504   -0.090219  
     10.040371 10.373322 12.130129    -0.020142    0.170194   -0.116584  
     11.307616 10.105125 11.507544     0.006641   -0.062549    0.045053  
      9.127847  8.591672 11.301702     0.277283    0.066333    0.372597  
      8.948934 10.046791 10.288465    -0.239698   -0.370230   -0.162497  
      7.974955  9.869172 11.772836     0.017958   -0.146771    0.102285  
     10.035116 10.001044 13.173151    -0.140863   -0.409974   -0.191194  
      9.849029 11.463604 12.160980     0.186182    0.063335    0.435390  
     12.004366 10.549272 12.000292     0.001117    0.002915   -0.004831  
 
  19 f  =   11.744497 THz    73.792850 2PiTHz  391.754235 cm-1    48.571352 meV
             X         Y         Z           dx          dy          dz
      8.960767  9.678596 11.324902    -0.432733   -0.019661    0.052765  
     10.040371 10.373322 12.130129     0.058708   -0.222777   -0.327653  
     11.307616 10.105125 11.507544     0.491075    0.180239    0.172364  
      9.127847  8.591672 11.301702    -0.308933   -0.034043    0.017959  
      8.948934 10.046791 10.288465    -0.313462   -0.022411    0.011331  
      7.974955  9.869172 11.772836    -0.004438    0.149694    0.222810  
     10.035116 10.001044 13.173151    -0.012045   -0.059411   -0.092714  
      9.849029 11.463604 12.160980    -0.010483   -0.069254   -0.084373  
     12.004366 10.549272 12.000292    -0.033930    0.126986    0.190616  
 
  20 f  =    7.183618 THz    45.136002 2PiTHz  239.619693 cm-1    29.709066 meV
             X         Y         Z           dx          dy          dz
      8.960767  9.678596 11.324902     0.002810   -0.019514    0.015300  
     10.040371 10.373322 12.130129    -0.030659    0.221473   -0.151985  
     11.307616 10.105125 11.507544     0.014923   -0.155217    0.108495  
      9.127847  8.591672 11.301702     0.355079    0.055584   -0.344768  
      8.948934 10.046791 10.288465    -0.394851    0.281261    0.111424  
      7.974955  9.869172 11.772836     0.058047   -0.462431    0.324414  
     10.035116 10.001044 13.173151    -0.046203    0.158957   -0.010409  
      9.849029 11.463604 12.160980     0.014272    0.071285   -0.148891  
     12.004366 10.549272 12.000292     0.014290   -0.107662    0.074302  
 
  21 f  =    1.840861 THz    11.566468 2PiTHz   61.404496 cm-1     7.613190 meV
             X         Y         Z           dx          dy          dz
      8.960767  9.678596 11.324902     0.035154   -0.267952    0.256113  
     10.040371 10.373322 12.130129    -0.051885    0.466506   -0.262658  
     11.307616 10.105125 11.507544    -0.001327    0.049041    0.029657  
      9.127847  8.591672 11.301702     0.002971   -0.084575    0.371940  
      8.948934 10.046791 10.288465     0.049714   -0.355864   -0.025617  
      7.974955  9.869172 11.772836    -0.005035    0.053140   -0.014987  
     10.035116 10.001044 13.173151    -0.026091    0.380728    0.011157  
      9.849029 11.463604 12.160980    -0.034790    0.139265   -0.337257  
     12.004366 10.549272 12.000292     0.013103   -0.075106    0.067201  
 
  22 f  =    1.048481 THz     6.587800 2PiTHz   34.973556 cm-1     4.336170 meV
             X         Y         Z           dx          dy          dz
      8.960767  9.678596 11.324902     0.048582   -0.618120    0.300613  
     10.040371 10.373322 12.130129    -0.004202   -0.435112    0.212152  
     11.307616 10.105125 11.507544    -0.009119   -0.275172    0.137757  
      9.127847  8.591672 11.301702     0.061201   -0.170984    0.090154  
      8.948934 10.046791 10.288465    -0.021571   -0.185310    0.084572  
      7.974955  9.869172 11.772836     0.014122   -0.217955    0.103593  
     10.035116 10.001044 13.173151     0.038144   -0.121671    0.062473  
      9.849029 11.463604 12.160980    -0.050770   -0.134010    0.060873  
     12.004366 10.549272 12.000292    -0.005842   -0.084930    0.054032  
 
  23 f  =    0.759349 THz     4.771133 2PiTHz   25.329166 cm-1     3.140418 meV
             X         Y         Z           dx          dy          dz
      8.960767  9.678596 11.324902     0.013416   -0.297318   -0.544522  
     10.040371 10.373322 12.130129    -0.109376   -0.186141   -0.478041  
     11.307616 10.105125 11.507544    -0.027923   -0.175142   -0.373900  
      9.127847  8.591672 11.301702     0.020188   -0.083752   -0.128077  
      8.948934 10.046791 10.288465     0.029776   -0.107393   -0.164931  
      7.974955  9.869172 11.772836    -0.012263   -0.090388   -0.190499  
     10.035116 10.001044 13.173151    -0.057325   -0.034557   -0.131066  
      9.849029 11.463604 12.160980    -0.049895   -0.056182   -0.162695  
     12.004366 10.549272 12.000292    -0.032486   -0.031516   -0.068168  
 
  24 f/i=    0.055383 THz     0.347983 2PiTHz    1.847383 cm-1     0.229046 meV
             X         Y         Z           dx          dy          dz
      8.960767  9.678596 11.324902     0.509003   -0.012429   -0.040098  
     10.040371 10.373322 12.130129     0.507669   -0.000596   -0.048282  
     11.307616 10.105125 11.507544     0.588923   -0.005986   -0.049263  
      9.127847  8.591672 11.301702     0.148668   -0.003336   -0.009475  
      8.948934 10.046791 10.288465     0.144746   -0.005734   -0.012279  
      7.974955  9.869172 11.772836     0.146895   -0.004471   -0.010900  
     10.035116 10.001044 13.173151     0.146247    0.003447   -0.012645  
      9.849029 11.463604 12.160980     0.145803   -0.000175   -0.017752  
     12.004366 10.549272 12.000292     0.146585   -0.002048   -0.010986  
 
  25 f/i=    2.819343 THz    17.714455 2PiTHz   94.043159 cm-1    11.659870 meV
             X         Y         Z           dx          dy          dz
      8.960767  9.678596 11.324902     0.131837   -0.265952   -0.018640  
     10.040371 10.373322 12.130129    -0.098417    0.011488    0.049274  
     11.307616 10.105125 11.507544    -0.029649    0.825737   -0.126645  
      9.127847  8.591672 11.301702     0.164657   -0.056003   -0.071779  
      8.948934 10.046791 10.288465    -0.026690   -0.018539    0.016137  
      7.974955  9.869172 11.772836     0.024975   -0.219955    0.026548  
     10.035116 10.001044 13.173151     0.041943   -0.067624   -0.010589  
      9.849029 11.463604 12.160980    -0.163776   -0.022843    0.092144  
     12.004366 10.549272 12.000292    -0.057974    0.261470   -0.010154  
 
  26 f/i=    2.940430 THz    18.475267 2PiTHz   98.082187 cm-1    12.160646 meV
             X         Y         Z           dx          dy          dz
      8.960767  9.678596 11.324902     0.156442   -0.048702   -0.365312  
     10.040371 10.373322 12.130129    -0.203900    0.024525    0.054036  
     11.307616 10.105125 11.507544     0.104242    0.023879    0.749453  
      9.127847  8.591672 11.301702     0.055550   -0.013193   -0.069507  
      8.948934 10.046791 10.288465     0.164902   -0.029948   -0.112617  
      7.974955  9.869172 11.772836    -0.010488   -0.014927   -0.227561  
     10.035116 10.001044 13.173151    -0.189456    0.027727    0.022190  
      9.849029 11.463604 12.160980    -0.070325    0.006343   -0.030741  
     12.004366 10.549272 12.000292    -0.053306    0.037752    0.270472  
 
  27 f/i=   10.000579 THz    62.835492 2PiTHz  333.583405 cm-1    41.359086 meV
             X         Y         Z           dx          dy          dz
      8.960767  9.678596 11.324902    -0.001653    0.031924   -0.027813  
     10.040371 10.373322 12.130129     0.004902   -0.039866    0.025936  
     11.307616 10.105125 11.507544    -0.030976    0.235697   -0.164101  
      9.127847  8.591672 11.301702    -0.020241    0.006685   -0.011605  
      8.948934 10.046791 10.288465     0.019218    0.014930   -0.006779  
      7.974955  9.869172 11.772836    -0.003883    0.033882   -0.026055  
     10.035116 10.001044 13.173151     0.026136   -0.070984   -0.016377  
      9.849029 11.463604 12.160980    -0.017092   -0.013774    0.073724  
     12.004366 10.549272 12.000292     0.105306   -0.767964    0.544649  
 
 Finite differences POTIM=  2.000000000000000E-002
  LATTYP: Found a simple cubic cell.
 ALAT       =    20.0000000000
  
  Lattice vectors:
  
 A1 = (  20.0000000000,   0.0000000000,   0.0000000000)
 A2 = (   0.0000000000,  20.0000000000,   0.0000000000)
 A3 = (   0.0000000000,   0.0000000000,  20.0000000000)


Analysis of symmetry for initial positions (statically):
=====================================================================
 Subroutine PRICEL returns:
 Original cell was already a primitive cell.
 

 Routine SETGRP: Setting up the symmetry group for a 
 simple cubic supercell.


 Subroutine GETGRP returns: Found  1 space group operations
 (whereof  1 operations were pure point group operations)
 out of a pool of 48 trial point group operations.


The static configuration has the point symmetry C_1 .


Analysis of symmetry for dynamics (positions and initial velocities):
=====================================================================
 Subroutine PRICEL returns:
 Original cell was already a primitive cell.
 

 Routine SETGRP: Setting up the symmetry group for a 
 simple cubic supercell.


 Subroutine GETGRP returns: Found  1 space group operations
 (whereof  1 operations were pure point group operations)
 out of a pool of 48 trial point group operations.


The dynamic configuration has the point symmetry C_1 .


 Subroutine INISYM returns: Found  1 space group operations
 (whereof  1 operations are pure point group operations),
 and found     1 'primitive' translations

 
 KPOINTS: K-POINTS                                

Automatic generation of k-mesh.
Space group operators:
 irot       det(A)        alpha          n_x          n_y          n_z        tau_x        tau_y        tau_z
    1     1.000000     0.000000     1.000000     0.000000     0.000000     0.000000     0.000000     0.000000
 
 Subroutine IBZKPT returns following result:
 ===========================================
 
 Found      1 irreducible k-points:
 
 Following reciprocal coordinates:
            Coordinates               Weight
  0.000000  0.000000  0.000000      1.000000
 
 Following cartesian coordinates:
            Coordinates               Weight
  0.000000  0.000000  0.000000      1.000000
 
 writing wavefunctions
     LOOP+:  cpu time   42.3856: real time   42.4903
    4ORBIT:  cpu time    0.0000: real time    0.0000

 total amount of memory used by VASP MPI-rank0   171681. kBytes
=======================================================================

   base      :      30000. kBytes
   nonl-proj :      48776. kBytes
   fftplans  :      20547. kBytes
   grid      :      70008. kBytes
   one-center:         27. kBytes
   wavefun   :       2323. kBytes
 
  
  
 General timing and accounting informations for this job:
 ========================================================
  
                  Total CPU time used (sec):     2277.116
                            User time (sec):     2263.188
                          System time (sec):       13.928
                         Elapsed time (sec):     2281.092
  
                   Maximum memory used (kb):      271496.
                   Average memory used (kb):           0.
  
                          Minor page faults:       301342
                          Major page faults:            1
                 Voluntary context switches:         8141
