 vasp.5.4.1 06Nov2015 (build Apr 24 2014 20:13:14) complex standard
 Contain Constrained Minimization Technique (TS), Periodic NBO, VASPsol, libbeef, VASP2WANNIER90, Constrained Cell Relaxation
 executed on Dell of Center for Computational Chemistry by root@node52 date 2021.06.17 19:42:33
 running on   32 total cores
 distrk:  each k-point on   32 cores,    1 groups
 distr:  one band on NCORES_PER_BAND=   1 cores,   32 groups


--------------------------------------------------------------------------------------------------------


 INCAR:
 POTCAR:   PAW_PBE C 08Apr2002
 POTCAR:   PAW_PBE O 08Apr2002
 POTCAR:    PAW_PBE Ce 23Dec2003

 -----------------------------------------------------------------------------
|                                                                             |
|           W    W    AA    RRRRR   N    N  II  N    N   GGGG   !!!           |
|           W    W   A  A   R    R  NN   N  II  NN   N  G    G  !!!           |
|           W    W  A    A  R    R  N N  N  II  N N  N  G       !!!           |
|           W WW W  AAAAAA  RRRRR   N  N N  II  N  N N  G  GGG   !            |
|           WW  WW  A    A  R   R   N   NN  II  N   NN  G    G                |
|           W    W  A    A  R    R  N    N  II  N    N   GGGG   !!!           |
|                                                                             |
|      For optimal performance we recommend to set                            |
|        NCORE= 4 - approx SQRT( number of cores)                             |
|      NCORE specifies how many cores store one orbital (NPAR=cpu/NCORE).     |
|      This setting can  greatly improve the performance of VASP for DFT.     |
|      The default, NPAR=number of cores might be grossly inefficient         |
|      on modern multi-core architectures or massively parallel machines.     |
|      Do your own testing !!!!                                               |
|      Unfortunately you need to use the default for GW and RPA calculations. |
|      (for HF NCORE is supported but not extensively tested yet)             |
|                                                                             |
 -----------------------------------------------------------------------------

 POTCAR:   PAW_PBE C 08Apr2002
   VRHFIN =C: s2p2
   LEXCH  = PE
   EATOM  =   147.1560 eV,   10.8157 Ry

   TITEL  = PAW_PBE C 08Apr2002
   LULTRA =        F    use ultrasoft PP ?
   IUNSCR =        0    unscreen: 0-lin 1-nonlin 2-no
   RPACOR =     .000    partial core radius
   POMASS =   12.011; ZVAL   =    4.000    mass and valenz
   RCORE  =    1.500    outmost cutoff radius
   RWIGS  =    1.630; RWIGS  =     .863    wigner-seitz radius (au A)
   ENMAX  =  400.000; ENMIN  =  300.000 eV
   ICORE  =        2    local potential
   LCOR   =        T    correct aug charges
   LPAW   =        T    paw PP
   EAUG   =  644.873
   DEXC   =     .000
   RMAX   =    2.266    core radius for proj-oper
   RAUG   =    1.300    factor for augmentation sphere
   RDEP   =    1.501    radius for radial grids
   RDEPT  =    1.300    core radius for aug-charge
   QCUT   =   -5.516; QGAM   =   11.032    optimization parameters

   Description
     l     E      TYP  RCUT    TYP  RCUT
     0   .000     23  1.200
     0   .000     23  1.200
     1   .000     23  1.500
     1  2.500     23  1.500
     2   .000      7  1.500
  local pseudopotential read in
  atomic valenz-charges read in
  non local Contribution for L=           0  read in
    real space projection operators read in
  non local Contribution for L=           0  read in
    real space projection operators read in
  non local Contribution for L=           1  read in
    real space projection operators read in
  non local Contribution for L=           1  read in
    real space projection operators read in
    PAW grid and wavefunctions read in

   number of l-projection  operators is LMAX  =           4
   number of lm-projection operators is LMMAX =           8

 POTCAR:   PAW_PBE O 08Apr2002
   VRHFIN =O: s2p4
   LEXCH  = PE
   EATOM  =   432.3788 eV,   31.7789 Ry

   TITEL  = PAW_PBE O 08Apr2002
   LULTRA =        F    use ultrasoft PP ?
   IUNSCR =        0    unscreen: 0-lin 1-nonlin 2-no
   RPACOR =     .000    partial core radius
   POMASS =   16.000; ZVAL   =    6.000    mass and valenz
   RCORE  =    1.520    outmost cutoff radius
   RWIGS  =    1.550; RWIGS  =     .820    wigner-seitz radius (au A)
   ENMAX  =  400.000; ENMIN  =  300.000 eV
   ICORE  =        2    local potential
   LCOR   =        T    correct aug charges
   LPAW   =        T    paw PP
   EAUG   =  605.392
   DEXC   =     .000
   RMAX   =    2.264    core radius for proj-oper
   RAUG   =    1.300    factor for augmentation sphere
   RDEP   =    1.550    radius for radial grids
   QCUT   =   -5.520; QGAM   =   11.041    optimization parameters

   Description
     l     E      TYP  RCUT    TYP  RCUT
     0   .000     23  1.200
     0  -.700     23  1.200
     1   .000     23  1.520
     1   .600     23  1.520
     2   .000      7  1.500
  local pseudopotential read in
  atomic valenz-charges read in
  non local Contribution for L=           0  read in
    real space projection operators read in
  non local Contribution for L=           0  read in
    real space projection operators read in
  non local Contribution for L=           1  read in
    real space projection operators read in
  non local Contribution for L=           1  read in
    real space projection operators read in
    PAW grid and wavefunctions read in

   number of l-projection  operators is LMAX  =           4
   number of lm-projection operators is LMMAX =           8

 POTCAR:    PAW_PBE Ce 23Dec2003
   VRHFIN =Ce : [core=Kr 4d10]
   LEXCH  = PE
   EATOM  =  1063.0861 eV,   78.1346 Ry

   TITEL  = PAW_PBE Ce 23Dec2003
   LULTRA =        F    use ultrasoft PP ?
   IUNSCR =        1    unscreen: 0-lin 1-nonlin 2-no
   RPACOR =    1.800    partial core radius
   POMASS =  140.115; ZVAL   =   12.000    mass and valenz
   RCORE  =    2.700    outmost cutoff radius
   RWIGS  =    2.500; RWIGS  =    1.323    wigner-seitz radius (au A)
   ENMAX  =  273.042; ENMIN  =  204.781 eV
   RCLOC  =    1.810    cutoff for local pot
   LCOR   =        T    correct aug charges
   LPAW   =        T    paw PP
   EAUG   =  580.196
   DEXC   =     .000
   RMAX   =    2.790    core radius for proj-oper
   RAUG   =    1.300    factor for augmentation sphere
   RDEP   =    2.810    radius for radial grids
   QCUT   =   -4.480; QGAM   =    8.959    optimization parameters

   Description
     l     E      TYP  RCUT    TYP  RCUT
     0   .000     23  1.500
     0   .000     23  2.300
     0   .000     23  1.500
     0   .000     23  2.300
     1   .000     23  2.000
     1  3.000     23  2.300
     2   .000     23  2.500
     2  1.000     23  2.500
     3   .000     23  2.700
     3  -.430     23  2.700
  local pseudopotential read in
  partial core-charges read in
  atomic valenz-charges read in
  non local Contribution for L=           0  read in
    real space projection operators read in
  non local Contribution for L=           0  read in
    real space projection operators read in
  non local Contribution for L=           1  read in
    real space projection operators read in
  non local Contribution for L=           1  read in
    real space projection operators read in
  non local Contribution for L=           2  read in
    real space projection operators read in
  non local Contribution for L=           2  read in
    real space projection operators read in
  non local Contribution for L=           3  read in
    real space projection operators read in
  non local Contribution for L=           3  read in
    real space projection operators read in
    PAW grid and wavefunctions read in

   number of l-projection  operators is LMAX  =           8
   number of lm-projection operators is LMMAX =          32

 Optimization of the real space projectors (new method)

 maximal supplied QI-value         = 25.13
 optimisation between [QCUT,QGAM] = [ 10.05, 20.36] = [ 28.30,116.06] Ry
 Optimized for a Real-space Cutoff    1.38 Angstroem

   l    n(q)    QCUT    max X(q) W(low)/X(q) W(high)/X(q)  e(spline)
   0      8    10.053     5.582    0.33E-04    0.15E-04    0.75E-07
   0      8    10.053    69.432    0.23E-03    0.38E-03    0.25E-06
   1      8    10.053     2.780    0.76E-04    0.11E-03    0.15E-06
   1      8    10.053     4.549    0.19E-03    0.19E-03    0.27E-06
 Optimization of the real space projectors (new method)

 maximal supplied QI-value         = 24.76
 optimisation between [QCUT,QGAM] = [ 10.15, 20.30] = [ 28.85,115.39] Ry
 Optimized for a Real-space Cutoff    1.51 Angstroem

   l    n(q)    QCUT    max X(q) W(low)/X(q) W(high)/X(q)  e(spline)
   0      9    10.150     4.192    0.32E-04    0.13E-04    0.13E-06
   0      9    10.150     8.473    0.18E-03    0.20E-03    0.43E-06
   1      9    10.150     2.474    0.32E-04    0.33E-04    0.64E-07
   1      9    10.150     3.912    0.13E-03    0.16E-03    0.33E-06
 Optimization of the real space projectors (new method)

 maximal supplied QI-value         = 13.98
 optimisation between [QCUT,QGAM] = [ 10.21, 20.42] = [ 29.18,116.73] Ry
 Optimized for a Real-space Cutoff    1.65 Angstroem

   l    n(q)    QCUT    max X(q) W(low)/X(q) W(high)/X(q)  e(spline)
   0     10    10.208     5.428    0.38E-05    0.42E-05    0.42E-07
   0     10    10.208     9.711    0.26E-04    0.16E-04    0.24E-06
   1     10    10.208     2.967    0.40E-05    0.16E-04    0.22E-07
   1     10    10.208     4.227    0.23E-04    0.26E-04    0.15E-06
   2      9    10.208     3.946    0.19E-04    0.48E-04    0.74E-07
   2      9    10.208     8.796    0.74E-04    0.19E-03    0.37E-06
   3      9    10.208     6.110    0.34E-04    0.23E-04    0.64E-07
   3      9    10.208    17.360    0.19E-03    0.10E-04    0.18E-06
 PAW_PBE C 08Apr2002                    :
 energy of atom  1       EATOM= -147.1560
 kinetic energy error for atom=    0.0288 (will be added to EATOM!!)
 PAW_PBE O 08Apr2002                    :
 energy of atom  2       EATOM= -432.3788
 kinetic energy error for atom=    0.1156 (will be added to EATOM!!)
  PAW_PBE Ce 23Dec2003                  :
 energy of atom  3       EATOM=-1063.0861
 kinetic energy error for atom=    0.0451 (will be added to EATOM!!)


 POSCAR: AutoCreatByScript: C O Ce
  positions in direct lattice
  No initial velocities read in
 exchange correlation table for  LEXCH =        8
   RHO(1)=    0.500       N(1)  =     2000
   RHO(2)=  100.500       N(2)  =     4000



--------------------------------------------------------------------------------------------------------


 ion  position               nearest neighbor table
   1  0.503  0.326  0.532-  74 1.19  73 1.66 107 2.58
   2  0.000  0.623  0.000-  78 2.36  77 2.36  75 2.36
   3  0.333  0.623  0.000-  79 2.36  75 2.36  76 2.36
   4  0.667  0.623  0.000-  80 2.36  77 2.36  76 2.36
   5  0.000  0.401  0.040-  84 2.36  77 2.36  75 2.36
   6  0.333  0.401  0.040-  75 2.36  85 2.36  76 2.36
   7  0.667  0.401  0.040-  77 2.36  86 2.36  76 2.36
   8  0.167  0.901  0.040-  79 2.36  81 2.36  78 2.36
   9  0.500  0.901  0.040-  82 2.36  80 2.36  79 2.36
  10  0.833  0.901  0.040-  80 2.36  83 2.36  78 2.36
  11  0.000  0.178  0.079-  84 2.36  83 2.36  81 2.36
  12  0.333  0.178  0.079-  81 2.36  85 2.36  82 2.36
  13  0.667  0.178  0.079-  83 2.36  86 2.36  82 2.36
  14  0.167  0.678  0.079-  79 2.36  75 2.36  78 2.36  89 2.41
  15  0.500  0.678  0.079-  76 2.36  79 2.36  80 2.36  87 2.41
  16  0.833  0.678  0.079-  80 2.36  77 2.36  78 2.36  88 2.41
  17  0.167  0.456  0.119-  85 2.36  75 2.36  84 2.36  89 2.41
  18  0.500  0.456  0.119-  76 2.36  85 2.36  86 2.36  87 2.41
  19  0.833  0.456  0.119-  86 2.36  77 2.36  84 2.36  88 2.41
  20  0.000  0.956  0.119-  78 2.36  81 2.36  83 2.36  90 2.40
  21  0.333  0.956  0.119-  81 2.36  79 2.36  82 2.36  92 2.40
  22  0.667  0.956  0.119-  83 2.36  80 2.36  82 2.36  91 2.40
  23  0.333  0.735  0.158-  79 2.35  89 2.37  87 2.37  92 2.37
  24  0.667  0.735  0.158-  80 2.35  88 2.37  87 2.37  91 2.37
  25  0.000  0.735  0.158-  78 2.35  90 2.37  89 2.37  88 2.37
  26  0.167  0.234  0.159-  85 2.36  81 2.36  84 2.36  94 2.38
  27  0.500  0.234  0.159-  82 2.36  85 2.36  86 2.36  95 2.38
  28  0.833  0.234  0.159-  86 2.36  83 2.36  84 2.36  93 2.38
  29  0.833  0.013  0.199-  83 2.36  93 2.37  90 2.37  91 2.37
  30  0.167  0.013  0.199-  81 2.36  94 2.37  90 2.37  92 2.37
  31  0.500  0.012  0.199-  82 2.37  92 2.37  91 2.37  95 2.37
  32  0.000  0.514  0.200-  89 2.35  88 2.35  96 2.36  84 2.41
  33  0.334  0.514  0.201-  87 2.35  89 2.36  97 2.36  85 2.42
  34  0.666  0.514  0.201-  87 2.35  88 2.36  98 2.36  86 2.42
  35  0.333  0.290  0.240-  94 2.35  95 2.36  97 2.37  85 2.40
  36  0.667  0.290  0.240-  93 2.35  95 2.36  98 2.37  86 2.40
  37  1.000  0.291  0.241-  96 2.35  93 2.36  94 2.36  84 2.41
  38  0.500  0.790  0.241-  87 2.36  92 2.36  91 2.36 101 2.52
  39  0.167  0.791  0.241-  92 2.36  90 2.36  89 2.36  99 2.49
  40  0.833  0.791  0.241-  91 2.36  90 2.36  88 2.36 100 2.49
  41  0.000  0.066  0.280-  90 2.35 104 2.35  94 2.38  93 2.39
  42  0.333  0.065  0.280- 103 2.35  92 2.36  94 2.38  95 2.39
  43  0.667  0.065  0.280- 102 2.35  91 2.36  93 2.38  95 2.39
  44  0.834  0.569  0.282-  96 2.35  98 2.37  88 2.38 100 2.47
  45  0.166  0.569  0.282-  96 2.35  97 2.37  89 2.38  99 2.47
  46  0.500  0.570  0.283-  98 2.35  97 2.35  87 2.41 101 2.45
  47  0.500  0.344  0.320-  98 2.36  97 2.36  95 2.37 107 2.45
  48  0.169  0.346  0.322-  97 2.35 106 2.36  96 2.39  94 2.41
  49  0.831  0.346  0.322-  98 2.35 105 2.36  96 2.39  93 2.41
  50  0.000  0.844  0.322- 100 2.34  99 2.34 104 2.37  90 2.43
  51  0.333  0.843  0.322-  99 2.34 101 2.35 103 2.36  92 2.43
  52  0.667  0.843  0.322- 100 2.34 101 2.35 102 2.36  91 2.43
  53  0.835  0.126  0.358- 105 2.31  93 2.35 104 2.36 102 2.39
  54  0.166  0.126  0.358- 106 2.31  94 2.35 104 2.36 103 2.39
  55  0.500  0.124  0.359- 107 2.30 103 2.37 102 2.37  95 2.37
  56  0.000  0.622  0.364- 108 2.27 100 2.38  99 2.38  96 2.40
  57  0.331  0.622  0.364- 109 2.26  99 2.37 101 2.40  97 2.41
  58  0.669  0.622  0.364- 110 2.26 100 2.37 101 2.40  98 2.41
  59  0.000  0.398  0.399- 108 2.22  96 2.38 106 2.39 105 2.39
  60  0.834  0.909  0.401- 102 2.32 100 2.32 104 2.32
  61  0.166  0.909  0.401- 103 2.32  99 2.33 104 2.33
  62  0.500  0.907  0.401- 101 2.31 103 2.34 102 2.34
  63  0.338  0.400  0.402- 109 2.22 107 2.39  97 2.42 106 2.42
  64  0.662  0.400  0.402- 110 2.22 107 2.39  98 2.42 105 2.42
  65  0.670  0.173  0.440- 102 2.31 105 2.32 107 2.35
  66  0.330  0.173  0.440- 103 2.32 106 2.32 107 2.34
  67  0.000  0.176  0.441- 104 2.34 106 2.35 105 2.35
  68  0.500  0.656  0.444- 110 2.31 109 2.31 101 2.41
  69  0.834  0.663  0.446- 110 2.26 108 2.31 100 2.44
  70  0.166  0.663  0.446- 109 2.26 108 2.31  99 2.44
  71  0.166  0.442  0.481- 106 2.31 109 2.37 108 2.38
  72  0.834  0.442  0.481- 105 2.31 110 2.37 108 2.38
  73  0.500  0.445  0.493-   1 1.66 109 2.50 110 2.50 107 2.52
  74  0.507  0.340  0.584-   1 1.19
  75  0.167  0.512  0.020-   6 2.36  17 2.36   3 2.36  14 2.36   5 2.36   2 2.36
  76  0.500  0.512  0.020-  18 2.36  15 2.36   6 2.36   7 2.36   3 2.36   4 2.36
  77  0.833  0.512  0.020-   7 2.36  19 2.36   4 2.36  16 2.36   5 2.36   2 2.36
  78  0.000  0.789  0.059-  25 2.35   2 2.36  20 2.36   8 2.36  10 2.36  14 2.36  16 2.36
  79  0.333  0.789  0.059-  23 2.35   3 2.36   8 2.36  14 2.36  21 2.36   9 2.36  15 2.36
  80  0.667  0.789  0.059-  24 2.35   4 2.36  10 2.36  16 2.36  22 2.36   9 2.36  15 2.36
  81  0.167  0.067  0.099-  12 2.36  21 2.36  26 2.36   8 2.36  11 2.36  20 2.36  30 2.36
  82  0.500  0.067  0.099-  27 2.36   9 2.36  13 2.36  12 2.36  22 2.36  21 2.36  31 2.37
  83  0.833  0.067  0.099-  13 2.36  22 2.36  28 2.36  10 2.36  11 2.36  20 2.36  29 2.36
  84  0.000  0.345  0.139-   5 2.36  11 2.36  17 2.36  19 2.36  26 2.36  28 2.36  32 2.41  37 2.41

  85  0.333  0.345  0.139-  17 2.36  26 2.36   6 2.36  12 2.36  18 2.36  27 2.36  35 2.40  33 2.42

  86  0.667  0.345  0.139-  19 2.36  28 2.36   7 2.36  13 2.36  18 2.36  27 2.36  36 2.40  34 2.42

  87  0.500  0.624  0.181-  34 2.35  33 2.35  38 2.36  23 2.37  24 2.37  46 2.41  18 2.41  15 2.41

  88  0.833  0.624  0.181-  32 2.35  34 2.36  40 2.36  24 2.37  25 2.37  44 2.38  19 2.41  16 2.41

  89  0.167  0.624  0.181-  32 2.35  33 2.36  39 2.36  23 2.37  25 2.37  45 2.38  17 2.41  14 2.41

  90  0.000  0.901  0.220-  41 2.35  39 2.36  40 2.36  25 2.37  30 2.37  29 2.37  20 2.40  50 2.43

  91  0.666  0.900  0.220-  38 2.36  40 2.36  43 2.36  31 2.37  24 2.37  29 2.37  22 2.40  52 2.43

  92  0.334  0.900  0.220-  38 2.36  39 2.36  42 2.36  31 2.37  23 2.37  30 2.37  21 2.40  51 2.43

  93  0.833  0.179  0.259-  36 2.35  53 2.35  37 2.36  29 2.37  28 2.38  43 2.38  41 2.39  49 2.41

  94  0.167  0.179  0.259-  35 2.35  54 2.35  37 2.36  30 2.37  26 2.38  42 2.38  41 2.38  48 2.41

  95  0.500  0.179  0.259-  35 2.36  36 2.36  47 2.37  31 2.37  55 2.37  27 2.38  43 2.39  42 2.39

  96  1.000  0.458  0.299-  44 2.35  45 2.35  37 2.35  32 2.36  59 2.38  48 2.39  49 2.39  56 2.40

  97  0.334  0.457  0.300-  46 2.35  48 2.35  33 2.36  47 2.36  35 2.37  45 2.37  57 2.41  63 2.42

  98  0.666  0.457  0.300-  46 2.35  49 2.35  34 2.36  47 2.36  36 2.37  44 2.37  58 2.41  64 2.42

  99  0.166  0.739  0.347-  61 2.33  50 2.34  51 2.34  57 2.37  56 2.38  70 2.44  45 2.47  39 2.49

 100  0.834  0.739  0.347-  60 2.32  50 2.34  52 2.34  58 2.37  56 2.38  69 2.44  44 2.47  40 2.49

 101  0.500  0.738  0.348-  62 2.31  51 2.35  52 2.35  57 2.40  58 2.40  68 2.41  46 2.45  38 2.52

 102  0.667  0.013  0.379-  65 2.31  60 2.32  62 2.34  43 2.35  52 2.36  55 2.37  53 2.39
 103  0.333  0.013  0.379-  66 2.32  61 2.32  62 2.34  42 2.35  51 2.36  55 2.37  54 2.39
 104  0.000  0.014  0.379-  60 2.32  61 2.33  67 2.34  41 2.35  53 2.36  54 2.36  50 2.37
 105  0.833  0.284  0.420-  53 2.31  72 2.31  65 2.32  67 2.35  49 2.36  59 2.39  64 2.42
 106  0.167  0.284  0.420-  54 2.31  71 2.31  66 2.32  67 2.35  48 2.36  59 2.39  63 2.42
 107  0.500  0.278  0.422-  55 2.30  66 2.34  65 2.35  64 2.39  63 2.39  47 2.45  73 2.52   1 2.58

 108  0.000  0.553  0.456-  59 2.22  56 2.27  70 2.31  69 2.31  72 2.38  71 2.38
 109  0.329  0.557  0.457-  63 2.22  57 2.26  70 2.26  68 2.31  71 2.37  73 2.50
 110  0.671  0.557  0.457-  64 2.22  58 2.26  69 2.26  68 2.31  72 2.37  73 2.50


IMPORTANT INFORMATION: All symmetrisations will be switched off!
NOSYMM: (Re-)initialisation of all symmetry stuff for point group C_1.



 KPOINTS: mesh auto

Automatic generation of k-mesh.
Space group operators:
 irot       det(A)        alpha          n_x          n_y          n_z        tau_x        tau_y        tau_z
    1     1.000000     0.000000     1.000000     0.000000     0.000000     0.000000     0.000000     0.000000

 Subroutine IBZKPT returns following result:
 ===========================================

 Found      4 irreducible k-points:

 Following reciprocal coordinates:
            Coordinates               Weight
  0.000000  0.000000  0.000000      1.000000
  0.500000  0.000000  0.000000      1.000000
  0.000000  0.500000  0.000000      1.000000
  0.500000  0.500000  0.000000      1.000000

 Following cartesian coordinates:
            Coordinates               Weight
  0.000000  0.000000  0.000000      1.000000
  0.043257  0.000000  0.000000      1.000000
  0.000000  0.043257  0.000000      1.000000
  0.043257  0.043257  0.000000      1.000000


 Subroutine IBZKPT_HF returns following result:
 ==============================================

 Found      4 k-points in 1st BZ
 the following      4 k-points will be used (e.g. in the exchange kernel)
 Following reciprocal coordinates:   # in IRBZ
  0.000000  0.000000  0.000000    0.25000000   1 t-inv F
  0.500000  0.000000  0.000000    0.25000000   2 t-inv F
  0.000000  0.500000  0.000000    0.25000000   3 t-inv F
  0.500000  0.500000  0.000000    0.25000000   4 t-inv F


--------------------------------------------------------------------------------------------------------




 Dimension of arrays:
   k-points           NKPTS =      4   k-points in BZ     NKDIM =      4   number of bands    NBANDS=    608
   number of dos      NEDOS =    301   number of ions     NIONS =    110
   non local maximal  LDIM  =      8   non local SUM 2l+1 LMDIM =     32
   total plane-waves  NPLWV = 960000
   max r-space proj   IRMAX =   5937   max aug-charges    IRDMAX=  16738
   dimension x,y,z NGX =    80 NGY =   80 NGZ =  150
   dimension x,y,z NGXF=   160 NGYF=  160 NGZF=  300
   support grid    NGXF=   160 NGYF=  160 NGZF=  300
   ions per type =               1  73  36
 NGX,Y,Z   is equivalent  to a cutoff of  11.51, 11.51, 10.89 a.u.
 NGXF,Y,Z  is equivalent  to a cutoff of  23.01, 23.01, 21.78 a.u.


 I would recommend the setting:
   dimension x,y,z NGX =    75 NGY =   75 NGZ =  149
 SYSTEM =  CO_rxn_TypeI_OA_TS
 POSCAR =  AutoCreatByScript: C O Ce

 Startparameter for this run:
   NWRITE =      2    write-flag & timer
   PREC   = accura    normal or accurate (medium, high low for compatibility)
   ISTART =      0    job   : 0-new  1-cont  2-samecut
   ICHARG =      2    charge: 1-file 2-atom 10-const
   ISPIN  =      2    spin polarized calculation?
   LNONCOLLINEAR =      F non collinear calculations
   LSORBIT =      F    spin-orbit coupling
   INIWAV =      1    electr: 0-lowe 1-rand  2-diag
   LASPH  =      F    aspherical Exc in radial PAW
   METAGGA=      F    non-selfconsistent MetaGGA calc.

 Electronic Relaxation 1
   ENCUT  =  400.0 eV  29.40 Ry    5.42 a.u.  18.85 18.85 37.34*2*pi/ulx,y,z
   ENINI  =  400.0     initial cutoff
   ENAUG  =  644.9 eV  augmentation charge cutoff
   NELM   =    120;   NELMIN=  2; NELMDL=  0     # of ELM steps
   EDIFF  = 0.1E-05   stopping-criterion for ELM
   LREAL  =      T    real-space projection
   NLSPLINE    = F    spline interpolate recip. space projectors
   LCOMPAT=      F    compatible to vasp.4.4
   GGA_COMPAT  = T    GGA compatible to vasp.4.4-vasp.4.6
   LMAXPAW     = -100 max onsite density
   LMAXMIX     =    6 max onsite mixed and CHGCAR
   VOSKOWN=      0    Vosko Wilk Nusair interpolation
   ROPT   =   -0.00025  -0.00025  -0.00025
 Ionic relaxation
   EDIFFG = -.2E-01   stopping-criterion for IOM
   NSW    =   1357    number of steps for IOM
   NBLOCK =      1;   KBLOCK =      1    inner block; outer block
   IBRION =      5    ionic relax: 0-MD 1-quasi-New 2-CG
   NFREE  =      2    steps in history (QN), initial steepest desc. (CG)
   ISIF   =      2    stress and relaxation
   IWAVPR =     11    prediction:  0-non 1-charg 2-wave 3-comb
   ISYM   =      0    0-nonsym 1-usesym 2-fastsym
   LCORR  =      T    Harris-Foulkes like correction to forces

   POTIM  = 0.0200    time-step for ionic-motion
   TEIN   =    0.0    initial temperature
   TEBEG  =    0.0;   TEEND  =   0.0 temperature during run
   SMASS  =  -3.00    Nose mass-parameter (am)
   estimated Nose-frequenzy (Omega)   =  0.10E-29 period in steps =****** mass=  -0.305E-26a.u.
   SCALEE = 1.0000    scale energy and forces
   NPACO  =    256;   APACO  = 16.0  distance and # of slots for P.C.
   PSTRESS=    0.0 pullay stress

  Mass of Ions in am
   POMASS =  12.01 16.00140.12
  Ionic Valenz
   ZVAL   =   4.00  6.00 12.00
  Atomic Wigner-Seitz radii
   RWIGS  =  -1.00 -1.00 -1.00
  virtual crystal weights
   VCA    =   1.00  1.00  1.00
   NELECT =     874.0000    total number of electrons
   NUPDOWN=      -1.0000    fix difference up-down

 DOS related values:
   EMIN   =  10.00;   EMAX   =-10.00  energy-range for DOS
   EFERMI =   0.00
   ISMEAR =     0;   SIGMA  =   0.05  broadening in eV -4-tet -1-fermi 0-gaus

 Electronic relaxation 2 (details)
   IALGO  =     68    algorithm
   LDIAG  =      T    sub-space diagonalisation (order eigenvalues)
   LSUBROT=      F    optimize rotation matrix (better conditioning)
   TURBO    =      0    0=normal 1=particle mesh
   IRESTART =      0    0=no restart 2=restart with 2 vectors
   NREBOOT  =      0    no. of reboots
   NMIN     =      0    reboot dimension
   EREF     =   0.00    reference energy to select bands
   IMIX   =      4    mixing-type and parameters
     AMIX     =   0.40;   BMIX     =  0.20
     AMIX_MAG =   0.80;   BMIX_MAG =  0.00
     AMIN     =   0.10
     WC   =   100.;   INIMIX=   1;  MIXPRE=   1;  MAXMIX= -45

 Intra band minimization:
   WEIMIN = 0.0010     energy-eigenvalue tresh-hold
   EBREAK =  0.41E-09  absolut break condition
   DEPER  =   0.30     relativ break condition

   TIME   =   0.40     timestep for ELM

  volume/ion in A,a.u.               =      27.81       187.68
  Fermi-wavevector in a.u.,A,eV,Ry     =   1.078218  2.037537 15.817507  1.162554
  Thomas-Fermi vector in A             =   2.214151

 Write flags
   LWAVE  =      T    write WAVECAR
   LCHARG =      T    write CHGCAR
   LVTOT  =      F    write LOCPOT, total local potential
   LVHAR  =      F    write LOCPOT, Hartree potential only
   LELF   =      F    write electronic localiz. function (ELF)
   LORBIT =      0    0 simple, 1 ext, 2 COOP (PROOUT)


 Dipole corrections
   LMONO  =      F    monopole corrections only (constant potential shift)
   LDIPOL =      F    correct potential (dipole corrections)
   IDIPOL =      0    1-x, 2-y, 3-z, 4-all directions
   EPSILON=  1.0000000 bulk dielectric constant

 LDA+U is selected, type is set to LDAUTYPE =  2
   angular momentum for each species LDAUL =    -1   -1    3
   U (eV)           for each species LDAUU =   0.0  0.0  5.5
   J (eV)           for each species LDAUJ =   0.0  0.0  0.5
 Exchange correlation treatment:
   GGA     =    --    GGA type
   LEXCH   =     8    internal setting for exchange type
   VOSKOWN=      0    Vosko Wilk Nusair interpolation
   LHFCALC =     F    Hartree Fock is set to
   LHFONE  =     F    Hartree Fock one center treatment
   AEXX    =    0.0000 exact exchange contribution

 Linear response parameters
   LEPSILON=     F    determine dielectric tensor
   LRPA    =     F    only Hartree local field effects (RPA)
   LNABLA  =     F    use nabla operator in PAW spheres
   LVEL    =     F    velocity operator in full k-point grid
   LINTERFAST=   F  fast interpolation
   KINTER  =     0    interpolate to denser k-point grid
   CSHIFT  =0.1000    complex shift for real part using Kramers Kronig
   OMEGAMAX=  -1.0    maximum frequency
   DEG_THRESHOLD= 0.2000000E-02 threshold for treating states as degnerate
   RTIME   =    0.100 relaxation time in fs

 Orbital magnetization related:
   ORBITALMAG=     F  switch on orbital magnetization
   LCHIMAG   =     F  perturbation theory with respect to B field
   DQ        =  0.001000  dq finite difference perturbation B field



--------------------------------------------------------------------------------------------------------


 finite differences
   using selective dynamics as specified on POSCAR
 charge density and potential will be updated during run
 spin polarized calculation
 RMM-DIIS sequential band-by-band and
  variant of blocked Davidson during initial phase
 perform sub-space diagonalisation
    before iterative eigenvector-optimisation
 modified Broyden-mixing scheme, WC =      100.0
 initial mixing is a Kerker type mixing with AMIX =  0.4000 and BMIX =      0.2000
 Hartree-type preconditioning will be used
 using additional bands          171
 real space projection scheme for non local part
 use partial core corrections
 calculate Harris-corrections to forces
   (improved forces if not selfconsistent)
 use gradient corrections
 use of overlap-Matrix (Vanderbilt PP)
 Gauss-broadening in eV      SIGMA  =   0.05


--------------------------------------------------------------------------------------------------------


  energy-cutoff  :      400.00
  volume of cell :     3059.26
      direct lattice vectors                 reciprocal lattice vectors
    11.558780000  0.000000000  0.000000000     0.086514321  0.000000000  0.000000000
     0.000000000 11.558780000  0.000000000     0.000000000  0.086514321  0.000000000
     0.000000000  0.000000000 22.897720000     0.000000000  0.000000000  0.043672470

  length of vectors
    11.558780000 11.558780000 22.897720000     0.086514321  0.086514321  0.043672470



 k-points in units of 2pi/SCALE and weight: mesh auto
   0.00000000  0.00000000  0.00000000       0.250
   0.04325716  0.00000000  0.00000000       0.250
   0.00000000  0.04325716  0.00000000       0.250
   0.04325716  0.04325716  0.00000000       0.250

 k-points in reciprocal lattice and weights: mesh auto
   0.00000000  0.00000000  0.00000000       0.250
   0.50000000  0.00000000  0.00000000       0.250
   0.00000000  0.50000000  0.00000000       0.250
   0.50000000  0.50000000  0.00000000       0.250

 position of ions in fractional coordinates (direct lattice)
   0.50321900  0.32552400  0.53219700
   0.00000000  0.62281000  0.00000000
   0.33333000  0.62281000  0.00000000
   0.66667000  0.62281000  0.00000000
   0.00000000  0.40058000  0.03966000
   0.33333000  0.40058000  0.03966000
   0.66667000  0.40058000  0.03966000
   0.16667000  0.90058000  0.03966000
   0.50000000  0.90058000  0.03966000
   0.83333000  0.90058000  0.03966000
   0.00000000  0.17836000  0.07932000
   0.33333000  0.17836000  0.07932000
   0.66667000  0.17836000  0.07932000
   0.16667000  0.67836000  0.07932000
   0.50000000  0.67836000  0.07932000
   0.83333000  0.67836000  0.07932000
   0.16667000  0.45614000  0.11898000
   0.50000000  0.45614000  0.11898000
   0.83333000  0.45614000  0.11898000
   0.00000000  0.95614000  0.11898000
   0.33333000  0.95614000  0.11898000
   0.66667000  0.95614000  0.11898000
   0.33333700  0.73498000  0.15842300
   0.66666800  0.73498200  0.15842700
   0.00000500  0.73503300  0.15843500
   0.16667000  0.23392000  0.15864000
   0.50000000  0.23392000  0.15864000
   0.83333000  0.23392000  0.15864000
   0.83314000  0.01266800  0.19865100
   0.16688200  0.01266500  0.19864400
   0.49999900  0.01249800  0.19874800
   0.00001000  0.51382500  0.20045700
   0.33384700  0.51387800  0.20097200
   0.66614300  0.51387800  0.20097400
   0.33303400  0.29010900  0.24003200
   0.66696400  0.29011100  0.24003300
   0.99999000  0.29075400  0.24056500
   0.49999800  0.79017000  0.24093200
   0.16668200  0.79052500  0.24099400
   0.83334500  0.79053600  0.24099700
   0.00005200  0.06554000  0.27997600
   0.33325900  0.06545700  0.28043700
   0.66673300  0.06547100  0.28043100
   0.83367700  0.56943100  0.28157100
   0.16633300  0.56944200  0.28158600
   0.49999600  0.56982100  0.28269200
   0.49999200  0.34435400  0.32047100
   0.16851200  0.34626000  0.32168700
   0.83144200  0.34628200  0.32171000
   0.00004000  0.84384100  0.32205100
   0.33339600  0.84307400  0.32222500
   0.66660800  0.84307100  0.32221500
   0.83453800  0.12581200  0.35777700
   0.16559400  0.12583000  0.35782700
   0.49996200  0.12383100  0.35879300
   0.00000100  0.62187800  0.36373000
   0.33089200  0.62217800  0.36388700
   0.66916900  0.62218400  0.36386600
   0.00002100  0.39832100  0.39885300
   0.83367500  0.90938200  0.40088500
   0.16639000  0.90937300  0.40091200
   0.49999000  0.90742600  0.40141600
   0.33763700  0.39971700  0.40154100
   0.66225000  0.39974900  0.40159500
   0.66994000  0.17314300  0.43973800
   0.33024700  0.17326300  0.43989800
   0.00000600  0.17580000  0.44095600
   0.50007600  0.65623800  0.44433500
   0.83443500  0.66338900  0.44619900
   0.16560600  0.66325400  0.44620100
   0.16575700  0.44194500  0.48146800
   0.83425400  0.44207400  0.48140300
   0.49987200  0.44533400  0.49254500
   0.50653100  0.34001300  0.58352000
   0.16667000  0.51169000  0.01983000
   0.50000000  0.51169000  0.01983000
   0.83333000  0.51169000  0.01983000
   0.00000000  0.78947000  0.05949000
   0.33333000  0.78947000  0.05949000
   0.66667000  0.78947000  0.05949000
   0.16667000  0.06725000  0.09915000
   0.50000000  0.06725000  0.09915000
   0.83333000  0.06725000  0.09915000
   0.00000000  0.34503000  0.13881000
   0.33333000  0.34503000  0.13881000
   0.66667000  0.34503000  0.13881000
   0.49999800  0.62419700  0.18118200
   0.83318400  0.62411900  0.18115400
   0.16682100  0.62412300  0.18115300
   0.00001900  0.90052100  0.21974300
   0.66647900  0.90028200  0.21989500
   0.33352300  0.90028200  0.21989800
   0.83317200  0.17934200  0.25866300
   0.16684700  0.17934400  0.25866800
   0.49999100  0.17949500  0.25895200
   0.99999900  0.45781800  0.29943000
   0.33412900  0.45686900  0.30007200
   0.66584300  0.45686300  0.30007400
   0.16616200  0.73918000  0.34679000
   0.83388900  0.73921200  0.34677100
   0.49999600  0.73804200  0.34764100
   0.66710600  0.01261100  0.37938100
   0.33293900  0.01260600  0.37940600
   0.00002700  0.01416100  0.37945600
   0.83315300  0.28354400  0.41977600
   0.16682900  0.28356600  0.41979000
   0.49996300  0.27842200  0.42200500
   0.00000500  0.55331800  0.45647300
   0.32862700  0.55691000  0.45686800
   0.67145300  0.55707900  0.45684000

 position of ions in cartesian coordinates  (Angst):
   5.81659771  3.76266030 12.18609789
   0.00000000  7.19892377  0.00000000
   3.85288814  7.19892377  0.00000000
   7.70589186  7.19892377  0.00000000
   0.00000000  4.63021609  0.90812358
   3.85288814  4.63021609  0.90812358
   7.70589186  4.63021609  0.90812358
   1.92650186 10.40960609  0.90812358
   5.77939000 10.40960609  0.90812358
   9.63227814 10.40960609  0.90812358
   0.00000000  2.06162400  1.81624715
   3.85288814  2.06162400  1.81624715
   7.70589186  2.06162400  1.81624715
   1.92650186  7.84101400  1.81624715
   5.77939000  7.84101400  1.81624715
   9.63227814  7.84101400  1.81624715
   1.92650186  5.27242191  2.72437073
   5.77939000  5.27242191  2.72437073
   9.63227814  5.27242191  2.72437073
   0.00000000 11.05181191  2.72437073
   3.85288814 11.05181191  2.72437073
   7.70589186 11.05181191  2.72437073
   3.85296905  8.49547212  3.62752550
   7.70586875  8.49549524  3.62761709
   0.00005779  8.49608474  3.62780027
   1.92650186  2.70382982  3.63249430
   5.77939000  2.70382982  3.63249430
   9.63227814  2.70382982  3.63249430
   9.63008197  0.14642663  4.54865498
   1.92895232  0.14639195  4.54849469
   5.77937844  0.14446163  4.55087605
   0.00011559  5.93919013  4.59000826
   3.85886403  5.93980275  4.60180058
   7.69980039  5.93980275  4.60184638
   3.84946674  3.35330611  5.49618553
   7.70929014  3.35332922  5.49620842
  11.55866441  3.36076152  5.50839001
   5.77936688  9.13340119  5.51679348
   1.92664057  9.13750456  5.51821313
   9.63245152  9.13763171  5.51828183
   0.00060106  0.75756244  6.41081205
   3.85206746  0.75660306  6.42136790
   7.70662007  0.75676489  6.42123052
   9.63628903  6.58192765  6.44733392
   1.92260655  6.58205480  6.44767738
   5.77934376  6.58643558  6.47300226
   5.77929753  3.98031213  7.33805523
   1.94779314  4.00234316  7.36589885
   9.61045516  4.00259746  7.36642550
   0.00046235  9.75377247  7.37423362
   3.85365102  9.74490689  7.37821783
   7.70517522  9.74487221  7.37798885
   9.64624114  1.45423323  8.19227757
   1.91406462  1.45444129  8.19342245
   5.77895077  1.43133529  8.21554165
   0.00001156  7.18815099  8.32858770
   3.82470783  7.19161862  8.33218264
   7.73477725  7.19168798  8.33170179
   0.00024273  4.60410481  9.13282432
   9.63626592 10.51134647  9.17935248
   1.92326540 10.51124244  9.17997072
   5.77927441 10.48873750  9.19151117
   3.90267180  4.62024087  9.19437339
   7.65480206  4.62061075  9.19560986
   7.74368907  2.00132185 10.06899760
   3.81725242  2.00270890 10.07266123
   0.00006935  2.03203352 10.09688702
   5.78026847  7.58531067 10.17425842
   9.64505059  7.66796751 10.21693977
   1.91420332  7.66640707 10.21698556
   1.91594870  5.10834503 11.02451945
   9.64295845  5.10983611 11.02303110
   5.77791048  5.14751773 11.27815750
   5.85488039  3.93013546 13.36127757
   1.92650186  5.91451214  0.45406179
   5.77939000  5.91451214  0.45406179
   9.63227814  5.91451214  0.45406179
   0.00000000  9.12531005  1.36218536
   3.85288814  9.12531005  1.36218536
   7.70589186  9.12531005  1.36218536
   1.92650186  0.77732796  2.27030894
   5.77939000  0.77732796  2.27030894
   9.63227814  0.77732796  2.27030894
   0.00000000  3.98812586  3.17843251
   3.85288814  3.98812586  3.17843251
   7.70589186  3.98812586  3.17843251
   5.77936688  7.21495580  4.14865471
   9.63059056  7.21405421  4.14801357
   1.92824724  7.21410045  4.14799067
   0.00021962 10.40892412  5.03161369
   7.70368414 10.40616158  5.03509414
   3.85511898 10.40616158  5.03516283
   9.63045185  2.07297472  5.92279295
   1.92854777  2.07299784  5.92290744
   5.77928597  2.07474322  5.92941039
  11.55876844  5.29181754  6.85626430
   3.86212360  5.28084826  6.87096464
   7.69633275  5.28077891  6.87101043
   1.92063000  8.54401900  7.94070032
   9.63873950  8.54438888  7.94026526
   5.77934376  8.53086511  7.96018628
   7.71093149  0.14576777  8.68695991
   3.84836865  0.14570998  8.68753235
   0.00031209  0.16368388  8.68867724
   9.63023223  3.27742272  9.61191331
   1.92833971  3.27767701  9.61223388
   5.77896233  3.21821865  9.66295233
   0.00005779  6.39568103 10.45219094
   3.79852720  6.43720017 10.46123554
   7.76117751  6.43915360 10.46059440



--------------------------------------------------------------------------------------------------------


 k-point  1 :   0.0000 0.0000 0.0000  plane waves:   55535
 k-point  2 :   0.5000 0.0000 0.0000  plane waves:   55534
 k-point  3 :   0.0000 0.5000 0.0000  plane waves:   55534
 k-point  4 :   0.5000 0.5000 0.0000  plane waves:   55644

 maximum and minimum number of plane-waves per node :     55644    55534

 maximum number of plane-waves:     55644
 maximum index in each direction:
   IXMAX=   18   IYMAX=   18   IZMAX=   37
   IXMIN=  -19   IYMIN=  -19   IZMIN=  -37

 NGX is ok and might be reduce to  76
 NGY is ok and might be reduce to  76
 NGZ is ok and might be reduce to 150

 serial   3D FFT for wavefunctions
 parallel 3D FFT for charge:
    minimum data exchange during FFTs selected (reduces bandwidth)


 total amount of memory used by VASP on root node   382495. kBytes
========================================================================

   base      :      30000. kBytes
   nonlr-proj:      91761. kBytes
   fftplans  :      12065. kBytes
   grid      :      98240. kBytes
   one-center:      10813. kBytes
   wavefun   :     139616. kBytes

     INWAV:  cpu time    0.0010: real time    0.0001
 Broyden mixing: mesh for mixing (old mesh)
   NGX = 37   NGY = 37   NGZ = 75
  (NGX  =160   NGY  =160   NGZ  =300)
  gives a total of 102675 points

 initial charge density was supplied:
 charge density of overlapping atoms calculated
 number of electron     874.0000000 magnetization     110.0000000
 keeping initial charge density in first step


--------------------------------------------------------------------------------------------------------


 Maximum index for non-local projection operator         5738
 Maximum index for augmentation-charges          761 (set IRDMAX)


--------------------------------------------------------------------------------------------------------


 First call to EWALD:  gamma=   0.122
 Maximum number of real-space cells 3x 3x 2
 Maximum number of reciprocal cells 2x 2x 4

 FEWALD executed in parallel
    FEWALD:  cpu time    0.0040: real time    0.0040


----------------------------------------- Iteration    1(   1)  ---------------------------------------


    POTLOK:  cpu time    0.6919: real time    0.6931
    SETDIJ:  cpu time    0.0570: real time    0.0558
     EDDAV:  cpu time  126.1868: real time  126.1551
       DOS:  cpu time    0.0020: real time    0.0014
    --------------------------------------------
      LOOP:  cpu time  126.9407: real time  126.9103

 eigenvalue-minimisations  :  9728
 total energy-change (2. order) : 0.1381269E+05  (-0.2987671E+05)
 number of electron     874.0000000 magnetization     110.0000000
 augmentation part      874.0000000 magnetization     110.0000000

 Free energy of the ion-electron system (eV)
  ---------------------------------------------------
  alpha Z        PSCENC =      2292.60070019
  Ewald energy   TEWEN  =    196173.81525348
  -Hartree energ DENC   =   -260390.01547566
  -exchange      EXHF   =         0.00000000
  -V(xc)+E(xc)   XCENC  =      2240.77317048
  PAW double counting   =     45550.07119846   -44806.90185970
  entropy T*S    EENTRO =        -0.05236862
  eigenvalues    EBANDS =      2780.58065484
  atomic energy  EATOM  =     69971.81703351
  Solvation  Ediel_sol  =         0.00000000
  ---------------------------------------------------
  free energy    TOTEN  =     13812.68830697 eV

  energy without entropy =    13812.74067559  energy(sigma->0) =    13812.71449128


--------------------------------------------------------------------------------------------------------




----------------------------------------- Iteration    1(   2)  ---------------------------------------


     EDDAV:  cpu time  141.8294: real time  141.7914
       DOS:  cpu time    0.0010: real time    0.0013
    --------------------------------------------
      LOOP:  cpu time  141.8304: real time  141.7957

 eigenvalue-minimisations  : 11264
 total energy-change (2. order) :-0.9375354E+04  (-0.8056014E+04)
 number of electron     874.0000000 magnetization     110.0000000
 augmentation part      874.0000000 magnetization     110.0000000

 Free energy of the ion-electron system (eV)
  ---------------------------------------------------
  alpha Z        PSCENC =      2292.60070019
  Ewald energy   TEWEN  =    196173.81525348
  -Hartree energ DENC   =   -260390.01547566
  -exchange      EXHF   =         0.00000000
  -V(xc)+E(xc)   XCENC  =      2240.77317048
  PAW double counting   =     45550.07119846   -44806.90185970
  entropy T*S    EENTRO =        -0.22746594
  eigenvalues    EBANDS =     -6594.59861598
  atomic energy  EATOM  =     69971.81703351
  Solvation  Ediel_sol  =         0.00000000
  ---------------------------------------------------
  free energy    TOTEN  =      4437.33393883 eV

  energy without entropy =     4437.56140477  energy(sigma->0) =     4437.44767180


--------------------------------------------------------------------------------------------------------




----------------------------------------- Iteration    1(   3)  ---------------------------------------


     EDDAV:  cpu time  159.6327: real time  159.5960
       DOS:  cpu time    0.0010: real time    0.0012
    --------------------------------------------
      LOOP:  cpu time  159.6347: real time  159.6006

 eigenvalue-minimisations  : 12992
 total energy-change (2. order) :-0.4724997E+04  (-0.4528955E+04)
 number of electron     874.0000000 magnetization     110.0000000
 augmentation part      874.0000000 magnetization     110.0000000

 Free energy of the ion-electron system (eV)
  ---------------------------------------------------
  alpha Z        PSCENC =      2292.60070019
  Ewald energy   TEWEN  =    196173.81525348
  -Hartree energ DENC   =   -260390.01547566
  -exchange      EXHF   =         0.00000000
  -V(xc)+E(xc)   XCENC  =      2240.77317048
  PAW double counting   =     45550.07119846   -44806.90185970
  entropy T*S    EENTRO =        -0.02537210
  eigenvalues    EBANDS =    -11319.79753489
  atomic energy  EATOM  =     69971.81703351
  Solvation  Ediel_sol  =         0.00000000
  ---------------------------------------------------
  free energy    TOTEN  =      -287.66288624 eV

  energy without entropy =     -287.63751414  energy(sigma->0) =     -287.65020019


--------------------------------------------------------------------------------------------------------




----------------------------------------- Iteration    1(   4)  ---------------------------------------


     EDDAV:  cpu time  176.6641: real time  176.6221
       DOS:  cpu time    0.0000: real time    0.0007
    --------------------------------------------
      LOOP:  cpu time  176.6651: real time  176.6262

 eigenvalue-minimisations  : 14656
 total energy-change (2. order) :-0.7722691E+03  (-0.7497803E+03)
 number of electron     874.0000000 magnetization     110.0000000
 augmentation part      874.0000000 magnetization     110.0000000

 Free energy of the ion-electron system (eV)
  ---------------------------------------------------
  alpha Z        PSCENC =      2292.60070019
  Ewald energy   TEWEN  =    196173.81525348
  -Hartree energ DENC   =   -260390.01547566
  -exchange      EXHF   =         0.00000000
  -V(xc)+E(xc)   XCENC  =      2240.77317048
  PAW double counting   =     45550.07119846   -44806.90185970
  entropy T*S    EENTRO =        -0.00000000
  eigenvalues    EBANDS =    -12092.09196559
  atomic energy  EATOM  =     69971.81703351
  Solvation  Ediel_sol  =         0.00000000
  ---------------------------------------------------
  free energy    TOTEN  =     -1059.93194484 eV

  energy without entropy =    -1059.93194484  energy(sigma->0) =    -1059.93194484


--------------------------------------------------------------------------------------------------------




----------------------------------------- Iteration    1(   5)  ---------------------------------------


     EDDAV:  cpu time  199.4597: real time  199.4086
       DOS:  cpu time    0.0010: real time    0.0007
    CHARGE:  cpu time    6.3970: real time    6.3961
    MIXING:  cpu time    0.0170: real time    0.0169
    --------------------------------------------
      LOOP:  cpu time  205.8767: real time  205.8317

 eigenvalue-minimisations  : 16864
 total energy-change (2. order) :-0.3625171E+02  (-0.3605885E+02)
 number of electron     873.9999992 magnetization      22.0000117
 augmentation part       -4.6291754 magnetization      23.7348749

 Broyden mixing:
  rms(total) = 0.10241E+02    rms(broyden)= 0.10238E+02
  rms(prec ) = 0.10912E+02
  weight for this iteration     100.00

 Free energy of the ion-electron system (eV)
  ---------------------------------------------------
  alpha Z        PSCENC =      2292.60070019
  Ewald energy   TEWEN  =    196173.81525348
  -Hartree energ DENC   =   -260390.01547566
  -exchange      EXHF   =         0.00000000
  -V(xc)+E(xc)   XCENC  =      2240.77317048
  PAW double counting   =     45550.07119846   -44806.90185970
  entropy T*S    EENTRO =        -0.00000000
  eigenvalues    EBANDS =    -12128.34367490
  atomic energy  EATOM  =     69971.81703351
  Solvation  Ediel_sol  =         0.00000000
  ---------------------------------------------------
  free energy    TOTEN  =     -1096.18365415 eV

  energy without entropy =    -1096.18365415  energy(sigma->0) =    -1096.18365415


--------------------------------------------------------------------------------------------------------




----------------------------------------- Iteration    1(   6)  ---------------------------------------


    POTLOK:  cpu time    0.6489: real time    0.6482
    SETDIJ:  cpu time    0.0540: real time    0.0547
    EDDIAG:  cpu time   19.5190: real time   19.5139
  RMM-DIIS:  cpu time  102.7124: real time  102.6858
    ORTHCH:  cpu time    2.7996: real time    2.7993
       DOS:  cpu time    0.0010: real time    0.0014
    CHARGE:  cpu time    7.1819: real time    7.1798
    MIXING:  cpu time    0.0170: real time    0.0168
    --------------------------------------------
      LOOP:  cpu time  132.9378: real time  132.9048

 eigenvalue-minimisations  : 12842
 total energy-change (2. order) : 0.8561153E+02  (-0.2398651E+03)
 number of electron     874.0000012 magnetization      19.7830589
 augmentation part       70.2282907 magnetization      10.1800466

 Broyden mixing:
  rms(total) = 0.18098E+02    rms(broyden)= 0.18092E+02
  rms(prec ) = 0.20113E+02
  weight for this iteration     100.00

 eigenvalues of (default mixing * dielectric matrix)
  average eigenvalue GAMMA=   0.3668
  0.3668

 Free energy of the ion-electron system (eV)
  ---------------------------------------------------
  alpha Z        PSCENC =      2292.60070019
  Ewald energy   TEWEN  =    196173.81525348
  -Hartree energ DENC   =   -262388.53966731
  -exchange      EXHF   =         0.00000000
  -V(xc)+E(xc)   XCENC  =      2335.78942397
  PAW double counting   =     47897.46239227   -47131.51889216
  entropy T*S    EENTRO =        -0.39586203
  eigenvalues    EBANDS =    -10161.60250823
  atomic energy  EATOM  =     69971.81703351
  Solvation  Ediel_sol  =         0.00000000
  ---------------------------------------------------
  free energy    TOTEN  =     -1010.57212630 eV

  energy without entropy =    -1010.17626427  energy(sigma->0) =    -1010.37419528


--------------------------------------------------------------------------------------------------------




----------------------------------------- Iteration    1(   7)  ---------------------------------------


    POTLOK:  cpu time    0.6499: real time    0.6492
    SETDIJ:  cpu time    0.0540: real time    0.0549
    EDDIAG:  cpu time   19.5430: real time   19.5381
  RMM-DIIS:  cpu time   92.6419: real time   92.6222
    ORTHCH:  cpu time    2.8056: real time    2.8043
       DOS:  cpu time    0.0010: real time    0.0014
    CHARGE:  cpu time    6.7150: real time    6.7125
    MIXING:  cpu time    0.0170: real time    0.0172
    --------------------------------------------
      LOOP:  cpu time  122.4304: real time  122.4049

 eigenvalue-minimisations  : 11567
 total energy-change (2. order) : 0.1582389E+02  (-0.1474726E+03)
 number of electron     873.9999989 magnetization      20.2687607
 augmentation part        2.6475638 magnetization       6.0509432

 Broyden mixing:
  rms(total) = 0.93778E+01    rms(broyden)= 0.93749E+01
  rms(prec ) = 0.12021E+02
  weight for this iteration     100.00

 eigenvalues of (default mixing * dielectric matrix)
  average eigenvalue GAMMA=   0.3355
  0.4204  0.2506

 Free energy of the ion-electron system (eV)
  ---------------------------------------------------
  alpha Z        PSCENC =      2292.60070019
  Ewald energy   TEWEN  =    196173.81525348
  -Hartree energ DENC   =   -263277.38062569
  -exchange      EXHF   =         0.00000000
  -V(xc)+E(xc)   XCENC  =      2298.34510186
  PAW double counting   =     49268.41415147   -48591.56761204
  entropy T*S    EENTRO =        -0.20255052
  eigenvalues    EBANDS =     -9130.58968670
  atomic energy  EATOM  =     69971.81703351
  Solvation  Ediel_sol  =         0.00000000
  ---------------------------------------------------
  free energy    TOTEN  =      -994.74823445 eV

  energy without entropy =     -994.54568393  energy(sigma->0) =     -994.64695919


--------------------------------------------------------------------------------------------------------




----------------------------------------- Iteration    1(   8)  ---------------------------------------


    POTLOK:  cpu time    0.6479: real time    0.6488
    SETDIJ:  cpu time    0.0550: real time    0.0546
    EDDIAG:  cpu time   19.5330: real time   19.5308
  RMM-DIIS:  cpu time  107.0397: real time  107.0115
    ORTHCH:  cpu time    2.7996: real time    2.7988
       DOS:  cpu time    0.0010: real time    0.0008
    CHARGE:  cpu time    6.3950: real time    6.3932
    MIXING:  cpu time    0.0180: real time    0.0181
    --------------------------------------------
      LOOP:  cpu time  136.4913: real time  136.4617

 eigenvalue-minimisations  : 13297
 total energy-change (2. order) :-0.1249821E+02  (-0.5531995E+02)
 number of electron     873.9999994 magnetization       8.0596868
 augmentation part      -15.0818849 magnetization       8.9774608

 Broyden mixing:
  rms(total) = 0.51445E+01    rms(broyden)= 0.51413E+01
  rms(prec ) = 0.56475E+01
  weight for this iteration     100.00

 eigenvalues of (default mixing * dielectric matrix)
  average eigenvalue GAMMA=   0.5270
  1.1322  0.2244  0.2244

 Free energy of the ion-electron system (eV)
  ---------------------------------------------------
  alpha Z        PSCENC =      2292.60070019
  Ewald energy   TEWEN  =    196173.81525348
  -Hartree energ DENC   =   -263127.38397775
  -exchange      EXHF   =         0.00000000
  -V(xc)+E(xc)   XCENC  =      2294.54065669
  PAW double counting   =     49545.31381759   -48871.32662578
  entropy T*S    EENTRO =        -0.00000000
  eigenvalues    EBANDS =     -9286.62330663
  atomic energy  EATOM  =     69971.81703351
  Solvation  Ediel_sol  =         0.00000000
  ---------------------------------------------------
  free energy    TOTEN  =     -1007.24644870 eV

  energy without entropy =    -1007.24644870  energy(sigma->0) =    -1007.24644870


--------------------------------------------------------------------------------------------------------




----------------------------------------- Iteration    1(   9)  ---------------------------------------


    POTLOK:  cpu time    0.6499: real time    0.6497
    SETDIJ:  cpu time    0.0540: real time    0.0549
    EDDIAG:  cpu time   19.5320: real time   19.5266
  RMM-DIIS:  cpu time   92.6119: real time   92.6040
    ORTHCH:  cpu time    2.7996: real time    2.7985
       DOS:  cpu time    0.0010: real time    0.0009
    CHARGE:  cpu time    6.4000: real time    6.3988
    MIXING:  cpu time    0.0180: real time    0.0183
    --------------------------------------------
      LOOP:  cpu time  122.0704: real time  122.0567

 eigenvalue-minimisations  : 11561
 total energy-change (2. order) : 0.6240423E+02  (-0.4059792E+01)
 number of electron     873.9999993 magnetization       2.6727117
 augmentation part      -15.4227455 magnetization       3.4509495

 Broyden mixing:
  rms(total) = 0.41840E+01    rms(broyden)= 0.41838E+01
  rms(prec ) = 0.46174E+01
  weight for this iteration     100.00

 eigenvalues of (default mixing * dielectric matrix)
  average eigenvalue GAMMA=   0.7502
  1.3920  1.1296  0.2396  0.2396

 Free energy of the ion-electron system (eV)
  ---------------------------------------------------
  alpha Z        PSCENC =      2292.60070019
  Ewald energy   TEWEN  =    196173.81525348
  -Hartree energ DENC   =   -263220.07063314
  -exchange      EXHF   =         0.00000000
  -V(xc)+E(xc)   XCENC  =      2302.51280274
  PAW double counting   =     50261.08742500   -49573.14647812
  entropy T*S    EENTRO =        -0.00000000
  eigenvalues    EBANDS =     -9153.45832355
  atomic energy  EATOM  =     69971.81703351
  Solvation  Ediel_sol  =         0.00000000
  ---------------------------------------------------
  free energy    TOTEN  =      -944.84221988 eV

  energy without entropy =     -944.84221988  energy(sigma->0) =     -944.84221988


--------------------------------------------------------------------------------------------------------




----------------------------------------- Iteration    1(  10)  ---------------------------------------


    POTLOK:  cpu time    0.6409: real time    0.6418
    SETDIJ:  cpu time    0.0550: real time    0.0548
    EDDIAG:  cpu time   19.5340: real time   19.5288
  RMM-DIIS:  cpu time  104.9530: real time  104.9307
    ORTHCH:  cpu time    2.7996: real time    2.7991
       DOS:  cpu time    0.0010: real time    0.0008
    CHARGE:  cpu time    6.3880: real time    6.3862
    MIXING:  cpu time    0.0190: real time    0.0190
    --------------------------------------------
      LOOP:  cpu time  134.3956: real time  134.3764

 eigenvalue-minimisations  : 13098
 total energy-change (2. order) : 0.6220559E+02  (-0.1907205E+02)
 number of electron     873.9999992 magnetization       2.2605567
 augmentation part      -15.0869899 magnetization       2.6327405

 Broyden mixing:
  rms(total) = 0.17605E+01    rms(broyden)= 0.17598E+01
  rms(prec ) = 0.19414E+01
  weight for this iteration     100.00

 eigenvalues of (default mixing * dielectric matrix)
  average eigenvalue GAMMA=   0.6501
  1.4756  1.1244  0.2393  0.2393  0.1718

 Free energy of the ion-electron system (eV)
  ---------------------------------------------------
  alpha Z        PSCENC =      2292.60070019
  Ewald energy   TEWEN  =    196173.81525348
  -Hartree energ DENC   =   -263377.15036875
  -exchange      EXHF   =         0.00000000
  -V(xc)+E(xc)   XCENC  =      2319.42536393
  PAW double counting   =     50816.83659727   -50096.06357560
  entropy T*S    EENTRO =        -0.00000000
  eigenvalues    EBANDS =     -8983.91763638
  atomic energy  EATOM  =     69971.81703351
  Solvation  Ediel_sol  =         0.00000000
  ---------------------------------------------------
  free energy    TOTEN  =      -882.63663236 eV

  energy without entropy =     -882.63663236  energy(sigma->0) =     -882.63663236


--------------------------------------------------------------------------------------------------------




----------------------------------------- Iteration    1(  11)  ---------------------------------------


    POTLOK:  cpu time    0.6489: real time    0.6490
    SETDIJ:  cpu time    0.0550: real time    0.0554
    EDDIAG:  cpu time   19.5820: real time   19.5769
  RMM-DIIS:  cpu time  114.8915: real time  114.8634
    ORTHCH:  cpu time    2.8226: real time    2.8221
       DOS:  cpu time    0.0010: real time    0.0008
    CHARGE:  cpu time    6.3940: real time    6.3916
    MIXING:  cpu time    0.0200: real time    0.0198
    --------------------------------------------
      LOOP:  cpu time  144.4170: real time  144.3840

 eigenvalue-minimisations  : 14101
 total energy-change (2. order) : 0.7214925E+00  (-0.3130414E+01)
 number of electron     873.9999991 magnetization       2.1468472
 augmentation part      -16.9025837 magnetization       2.3594588

 Broyden mixing:
  rms(total) = 0.13421E+01    rms(broyden)= 0.13418E+01
  rms(prec ) = 0.14882E+01
  weight for this iteration     100.00

 eigenvalues of (default mixing * dielectric matrix)
  average eigenvalue GAMMA=   0.6323
  1.4081  1.1451  0.2386  0.2386  0.3816  0.3816

 Free energy of the ion-electron system (eV)
  ---------------------------------------------------
  alpha Z        PSCENC =      2292.60070019
  Ewald energy   TEWEN  =    196173.81525348
  -Hartree energ DENC   =   -263362.73198283
  -exchange      EXHF   =         0.00000000
  -V(xc)+E(xc)   XCENC  =      2320.12893702
  PAW double counting   =     50806.47550406   -50079.74145583
  entropy T*S    EENTRO =        -0.00000000
  eigenvalues    EBANDS =     -9004.27912948
  atomic energy  EATOM  =     69971.81703351
  Solvation  Ediel_sol  =         0.00000000
  ---------------------------------------------------
  free energy    TOTEN  =      -881.91513989 eV

  energy without entropy =     -881.91513989  energy(sigma->0) =     -881.91513989


--------------------------------------------------------------------------------------------------------




----------------------------------------- Iteration    1(  12)  ---------------------------------------


    POTLOK:  cpu time    0.6479: real time    0.6495
    SETDIJ:  cpu time    0.0560: real time    0.0554
    EDDIAG:  cpu time   19.5970: real time   19.5944
  RMM-DIIS:  cpu time  120.0298: real time  119.9988
    ORTHCH:  cpu time    2.8096: real time    2.8084
       DOS:  cpu time    0.0010: real time    0.0008
    CHARGE:  cpu time    6.4050: real time    6.4046
    MIXING:  cpu time    0.0210: real time    0.0206
    --------------------------------------------
      LOOP:  cpu time  149.5703: real time  149.5374

 eigenvalue-minimisations  : 14659
 total energy-change (2. order) :-0.1710807E+00  (-0.4118909E+00)
 number of electron     873.9999991 magnetization       1.9695778
 augmentation part      -17.6899329 magnetization       2.1718853

 Broyden mixing:
  rms(total) = 0.13787E+01    rms(broyden)= 0.13787E+01
  rms(prec ) = 0.15266E+01
  weight for this iteration     100.00

 eigenvalues of (default mixing * dielectric matrix)
  average eigenvalue GAMMA=   0.6836
  1.3649  1.1792  0.6843  0.6843  0.2379  0.2379  0.3967

 Free energy of the ion-electron system (eV)
  ---------------------------------------------------
  alpha Z        PSCENC =      2292.60070019
  Ewald energy   TEWEN  =    196173.81525348
  -Hartree energ DENC   =   -263321.01893337
  -exchange      EXHF   =         0.00000000
  -V(xc)+E(xc)   XCENC  =      2317.75947871
  PAW double counting   =     50723.78156818   -49992.46350411
  entropy T*S    EENTRO =        -0.00000000
  eigenvalues    EBANDS =     -9048.37781717
  atomic energy  EATOM  =     69971.81703351
  Solvation  Ediel_sol  =         0.00000000
  ---------------------------------------------------
  free energy    TOTEN  =      -882.08622059 eV

  energy without entropy =     -882.08622059  energy(sigma->0) =     -882.08622059


--------------------------------------------------------------------------------------------------------




----------------------------------------- Iteration    1(  13)  ---------------------------------------


    POTLOK:  cpu time    0.6479: real time    0.6478
    SETDIJ:  cpu time    0.0550: real time    0.0553
    EDDIAG:  cpu time   19.5070: real time   19.5014
  RMM-DIIS:  cpu time  117.1082: real time  117.0836
    ORTHCH:  cpu time    2.8096: real time    2.8102
       DOS:  cpu time    0.0010: real time    0.0008
    CHARGE:  cpu time    6.3990: real time    6.3974
    MIXING:  cpu time    0.0210: real time    0.0212
    --------------------------------------------
      LOOP:  cpu time  146.5517: real time  146.5224

 eigenvalue-minimisations  : 14335
 total energy-change (2. order) : 0.9281794E+00  (-0.6364188E+00)
 number of electron     873.9999991 magnetization       0.6193231
 augmentation part      -18.7938774 magnetization       0.7814426

 Broyden mixing:
  rms(total) = 0.12868E+01    rms(broyden)= 0.12867E+01
  rms(prec ) = 0.14285E+01
  weight for this iteration     100.00

 eigenvalues of (default mixing * dielectric matrix)
  average eigenvalue GAMMA=   0.7870
  1.6993  0.9114  0.9114  1.0352  0.2380  0.2380  0.6312  0.6312

 Free energy of the ion-electron system (eV)
  ---------------------------------------------------
  alpha Z        PSCENC =      2292.60070019
  Ewald energy   TEWEN  =    196173.81525348
  -Hartree energ DENC   =   -263240.36864481
  -exchange      EXHF   =         0.00000000
  -V(xc)+E(xc)   XCENC  =      2314.53590987
  PAW double counting   =     50616.68152305   -49871.77262657
  entropy T*S    EENTRO =        -0.00000000
  eigenvalues    EBANDS =     -9138.46718991
  atomic energy  EATOM  =     69971.81703351
  Solvation  Ediel_sol  =         0.00000000
  ---------------------------------------------------
  free energy    TOTEN  =      -881.15804121 eV

  energy without entropy =     -881.15804121  energy(sigma->0) =     -881.15804121


--------------------------------------------------------------------------------------------------------




----------------------------------------- Iteration    1(  14)  ---------------------------------------


    POTLOK:  cpu time    0.6469: real time    0.6475
    SETDIJ:  cpu time    0.0560: real time    0.0558
    EDDIAG:  cpu time   19.5610: real time   19.5550
  RMM-DIIS:  cpu time   96.8133: real time   96.7931
    ORTHCH:  cpu time    2.8096: real time    2.8097
       DOS:  cpu time    0.0010: real time    0.0009
    CHARGE:  cpu time    6.4230: real time    6.4214
    MIXING:  cpu time    0.0220: real time    0.0220
    --------------------------------------------
      LOOP:  cpu time  126.3358: real time  126.3105

 eigenvalue-minimisations  : 12074
 total energy-change (2. order) : 0.5601117E+01  (-0.1577180E+01)
 number of electron     873.9999991 magnetization      -0.8971913
 augmentation part      -16.5574214 magnetization      -0.8104452

 Broyden mixing:
  rms(total) = 0.55476E+00    rms(broyden)= 0.55455E+00
  rms(prec ) = 0.62022E+00
  weight for this iteration     100.00

 eigenvalues of (default mixing * dielectric matrix)
  average eigenvalue GAMMA=   0.8631
  2.2402  0.8666  0.8666  0.2380  0.2380  0.9336  0.9336  0.8330  0.6182

 Free energy of the ion-electron system (eV)
  ---------------------------------------------------
  alpha Z        PSCENC =      2292.60070019
  Ewald energy   TEWEN  =    196173.81525348
  -Hartree energ DENC   =   -263144.92707962
  -exchange      EXHF   =         0.00000000
  -V(xc)+E(xc)   XCENC  =      2313.70950569
  PAW double counting   =     50433.67102704   -49647.66293634
  entropy T*S    EENTRO =        -0.00000000
  eigenvalues    EBANDS =     -9268.58042795
  atomic energy  EATOM  =     69971.81703351
  Solvation  Ediel_sol  =         0.00000000
  ---------------------------------------------------
  free energy    TOTEN  =      -875.55692401 eV

  energy without entropy =     -875.55692401  energy(sigma->0) =     -875.55692401


--------------------------------------------------------------------------------------------------------




----------------------------------------- Iteration    1(  15)  ---------------------------------------


    POTLOK:  cpu time    0.6399: real time    0.6413
    SETDIJ:  cpu time    0.0560: real time    0.0556
    EDDIAG:  cpu time   19.5890: real time   19.5833
  RMM-DIIS:  cpu time  109.4624: real time  109.4376
    ORTHCH:  cpu time    2.8106: real time    2.8101
       DOS:  cpu time    0.0020: real time    0.0013
    CHARGE:  cpu time    6.5690: real time    6.5670
    MIXING:  cpu time    0.0220: real time    0.0227
    --------------------------------------------
      LOOP:  cpu time  139.1548: real time  139.1337

 eigenvalue-minimisations  : 13540
 total energy-change (2. order) :-0.1759171E+01  (-0.3328481E+01)
 number of electron     873.9999992 magnetization      -1.0569017
 augmentation part      -13.2972356 magnetization      -1.0907622

 Broyden mixing:
  rms(total) = 0.78367E+00    rms(broyden)= 0.78296E+00
  rms(prec ) = 0.86646E+00
  weight for this iteration     100.00

 eigenvalues of (default mixing * dielectric matrix)
  average eigenvalue GAMMA=   0.8314
  2.2595  0.8589  0.8589  1.0724  0.9716  0.9716  0.2380  0.2380  0.5051  0.3394

 Free energy of the ion-electron system (eV)
  ---------------------------------------------------
  alpha Z        PSCENC =      2292.60070019
  Ewald energy   TEWEN  =    196173.81525348
  -Hartree energ DENC   =   -262980.65687113
  -exchange      EXHF   =         0.00000000
  -V(xc)+E(xc)   XCENC  =      2310.07820614
  PAW double counting   =     50168.32631351   -49338.49681048
  entropy T*S    EENTRO =        -0.00008424
  eigenvalues    EBANDS =     -9474.79983621
  atomic energy  EATOM  =     69971.81703351
  Solvation  Ediel_sol  =         0.00000000
  ---------------------------------------------------
  free energy    TOTEN  =      -877.31609523 eV

  energy without entropy =     -877.31601100  energy(sigma->0) =     -877.31605312


--------------------------------------------------------------------------------------------------------




----------------------------------------- Iteration    1(  16)  ---------------------------------------


    POTLOK:  cpu time    0.6469: real time    0.6472
    SETDIJ:  cpu time    0.0550: real time    0.0551
    EDDIAG:  cpu time   19.5360: real time   19.5306
  RMM-DIIS:  cpu time  110.7382: real time  110.7219
    ORTHCH:  cpu time    2.7966: real time    2.7957
       DOS:  cpu time    0.0010: real time    0.0009
    CHARGE:  cpu time    6.4220: real time    6.4206
    MIXING:  cpu time    0.0220: real time    0.0212
    --------------------------------------------
      LOOP:  cpu time  140.2197: real time  140.1981

 eigenvalue-minimisations  : 13650
 total energy-change (2. order) : 0.5582352E+00  (-0.3062311E+00)
 number of electron     873.9999992 magnetization      -0.7959979
 augmentation part      -14.8631664 magnetization      -0.8316963

 Broyden mixing:
  rms(total) = 0.61905E+00    rms(broyden)= 0.61901E+00
  rms(prec ) = 0.68546E+00
  weight for this iteration     100.00

 eigenvalues of (default mixing * dielectric matrix)
  average eigenvalue GAMMA=   0.8523
  2.3075  0.9164  0.9164  1.0969  1.0969  1.0027  0.2380  0.2380  0.5723  0.5723
  0.4178

 Free energy of the ion-electron system (eV)
  ---------------------------------------------------
  alpha Z        PSCENC =      2292.60070019
  Ewald energy   TEWEN  =    196173.81525348
  -Hartree energ DENC   =   -263017.39376455
  -exchange      EXHF   =         0.00000000
  -V(xc)+E(xc)   XCENC  =      2310.23036676
  PAW double counting   =     50188.14943051   -49359.86537976
  entropy T*S    EENTRO =        -0.00000000
  eigenvalues    EBANDS =     -9436.11150021
  atomic energy  EATOM  =     69971.81703351
  Solvation  Ediel_sol  =         0.00000000
  ---------------------------------------------------
  free energy    TOTEN  =      -876.75786007 eV

  energy without entropy =     -876.75786007  energy(sigma->0) =     -876.75786007


--------------------------------------------------------------------------------------------------------




----------------------------------------- Iteration    1(  17)  ---------------------------------------


    POTLOK:  cpu time    0.6479: real time    0.6480
    SETDIJ:  cpu time    0.0550: real time    0.0550
    EDDIAG:  cpu time   19.5920: real time   19.5867
  RMM-DIIS:  cpu time  103.1383: real time  103.1221
    ORTHCH:  cpu time    2.7986: real time    2.7972
       DOS:  cpu time    0.0000: real time    0.0008
    CHARGE:  cpu time    6.3940: real time    6.3914
    MIXING:  cpu time    0.0220: real time    0.0217
    --------------------------------------------
      LOOP:  cpu time  132.6498: real time  132.6280

 eigenvalue-minimisations  : 12681
 total energy-change (2. order) : 0.5909190E+00  (-0.2792256E+00)
 number of electron     873.9999992 magnetization      -0.4897652
 augmentation part      -16.1521946 magnetization      -0.5191301

 Broyden mixing:
  rms(total) = 0.35721E+00    rms(broyden)= 0.35715E+00
  rms(prec ) = 0.39089E+00
  weight for this iteration     100.00

 eigenvalues of (default mixing * dielectric matrix)
  average eigenvalue GAMMA=   0.8598
  2.1461  1.4276  1.4276  0.9240  0.9240  0.7607  0.6437  0.6437  0.2380  0.2380
  0.5485  0.3961

 Free energy of the ion-electron system (eV)
  ---------------------------------------------------
  alpha Z        PSCENC =      2292.60070019
  Ewald energy   TEWEN  =    196173.81525348
  -Hartree energ DENC   =   -263121.09930561
  -exchange      EXHF   =         0.00000000
  -V(xc)+E(xc)   XCENC  =      2312.44550441
  PAW double counting   =     50275.78914044   -49454.44945381
  entropy T*S    EENTRO =        -0.00000000
  eigenvalues    EBANDS =     -9327.08581371
  atomic energy  EATOM  =     69971.81703351
  Solvation  Ediel_sol  =         0.00000000
  ---------------------------------------------------
  free energy    TOTEN  =      -876.16694110 eV

  energy without entropy =     -876.16694110  energy(sigma->0) =     -876.16694110


--------------------------------------------------------------------------------------------------------




----------------------------------------- Iteration    1(  18)  ---------------------------------------


    POTLOK:  cpu time    0.6489: real time    0.6484
    SETDIJ:  cpu time    0.0540: real time    0.0550
    EDDIAG:  cpu time   19.5580: real time   19.5530
  RMM-DIIS:  cpu time  110.8491: real time  110.8230
    ORTHCH:  cpu time    2.7976: real time    2.7968
       DOS:  cpu time    0.0010: real time    0.0008
    CHARGE:  cpu time    6.3930: real time    6.3919
    MIXING:  cpu time    0.0220: real time    0.0223
    --------------------------------------------
      LOOP:  cpu time  140.3257: real time  140.2963

 eigenvalue-minimisations  : 13670
 total energy-change (2. order) : 0.3782014E-02  (-0.2116911E+00)
 number of electron     873.9999991 magnetization      -0.3306979
 augmentation part      -17.4084508 magnetization      -0.3330144

 Broyden mixing:
  rms(total) = 0.19281E+00    rms(broyden)= 0.19264E+00
  rms(prec ) = 0.21001E+00
  weight for this iteration     100.00

 eigenvalues of (default mixing * dielectric matrix)
  average eigenvalue GAMMA=   0.8745
  2.5429  0.9298  0.9298  1.3844  1.3844  0.8182  0.8182  0.2380  0.2380  0.6546
  0.6546  0.4381  0.3372

 Free energy of the ion-electron system (eV)
  ---------------------------------------------------
  alpha Z        PSCENC =      2292.60070019
  Ewald energy   TEWEN  =    196173.81525348
  -Hartree energ DENC   =   -263175.46736614
  -exchange      EXHF   =         0.00000000
  -V(xc)+E(xc)   XCENC  =      2312.76982850
  PAW double counting   =     50299.63462004   -49477.35815647
  entropy T*S    EENTRO =        -0.00000000
  eigenvalues    EBANDS =     -9273.97507220
  atomic energy  EATOM  =     69971.81703351
  Solvation  Ediel_sol  =         0.00000000
  ---------------------------------------------------
  free energy    TOTEN  =      -876.16315909 eV

  energy without entropy =     -876.16315909  energy(sigma->0) =     -876.16315909


--------------------------------------------------------------------------------------------------------




----------------------------------------- Iteration    1(  19)  ---------------------------------------


    POTLOK:  cpu time    0.6479: real time    0.6480
    SETDIJ:  cpu time    0.0550: real time    0.0544
    EDDIAG:  cpu time   19.5640: real time   19.5644
  RMM-DIIS:  cpu time  108.2405: real time  108.2112
    ORTHCH:  cpu time    2.8006: real time    2.8005
       DOS:  cpu time    0.0010: real time    0.0008
    CHARGE:  cpu time    6.3880: real time    6.3856
    MIXING:  cpu time    0.0230: real time    0.0229
    --------------------------------------------
      LOOP:  cpu time  137.7221: real time  137.6929

 eigenvalue-minimisations  : 13332
 total energy-change (2. order) :-0.8569989E-01  (-0.5936701E-01)
 number of electron     873.9999992 magnetization      -0.0944245
 augmentation part      -17.2314514 magnetization      -0.0920083

 Broyden mixing:
  rms(total) = 0.23309E+00    rms(broyden)= 0.23308E+00
  rms(prec ) = 0.25698E+00
  weight for this iteration     100.00

 eigenvalues of (default mixing * dielectric matrix)
  average eigenvalue GAMMA=   0.8751
  2.6688  0.9271  0.9271  1.2994  1.2994  0.9803  0.9803  0.8432  0.2380  0.2380
  0.5671  0.4659  0.4659  0.3515

 Free energy of the ion-electron system (eV)
  ---------------------------------------------------
  alpha Z        PSCENC =      2292.60070019
  Ewald energy   TEWEN  =    196173.81525348
  -Hartree energ DENC   =   -263169.23182629
  -exchange      EXHF   =         0.00000000
  -V(xc)+E(xc)   XCENC  =      2312.46140465
  PAW double counting   =     50279.19470258   -49450.13017149
  entropy T*S    EENTRO =        -0.00000000
  eigenvalues    EBANDS =     -9286.77595560
  atomic energy  EATOM  =     69971.81703351
  Solvation  Ediel_sol  =         0.00000000
  ---------------------------------------------------
  free energy    TOTEN  =      -876.24885898 eV

  energy without entropy =     -876.24885898  energy(sigma->0) =     -876.24885898


--------------------------------------------------------------------------------------------------------




----------------------------------------- Iteration    1(  20)  ---------------------------------------


    POTLOK:  cpu time    0.6429: real time    0.6424
    SETDIJ:  cpu time    0.0540: real time    0.0549
    EDDIAG:  cpu time   19.5460: real time   19.5445
  RMM-DIIS:  cpu time  118.4390: real time  118.4118
    ORTHCH:  cpu time    2.8116: real time    2.8105
       DOS:  cpu time    0.0010: real time    0.0008
    CHARGE:  cpu time    6.3940: real time    6.3926
    MIXING:  cpu time    0.0240: real time    0.0236
    --------------------------------------------
      LOOP:  cpu time  147.9155: real time  147.8960

 eigenvalue-minimisations  : 14502
 total energy-change (2. order) : 0.7774974E-02  (-0.4518587E-01)
 number of electron     873.9999991 magnetization       0.0305643
 augmentation part      -17.4456460 magnetization       0.0375710

 Broyden mixing:
  rms(total) = 0.26564E+00    rms(broyden)= 0.26562E+00
  rms(prec ) = 0.28804E+00
  weight for this iteration     100.00

 eigenvalues of (default mixing * dielectric matrix)
  average eigenvalue GAMMA=   0.8648
  2.6514  0.9208  0.9208  1.2463  1.2351  1.2351  1.0344  1.0344  0.2380  0.2380
  0.5660  0.4906  0.4906  0.3353  0.3353

 Free energy of the ion-electron system (eV)
  ---------------------------------------------------
  alpha Z        PSCENC =      2292.60070019
  Ewald energy   TEWEN  =    196173.81525348
  -Hartree energ DENC   =   -263190.48500364
  -exchange      EXHF   =         0.00000000
  -V(xc)+E(xc)   XCENC  =      2313.24553323
  PAW double counting   =     50316.96717483   -49488.81131306
  entropy T*S    EENTRO =        -0.00000000
  eigenvalues    EBANDS =     -9265.39046254
  atomic energy  EATOM  =     69971.81703351
  Solvation  Ediel_sol  =         0.00000000
  ---------------------------------------------------
  free energy    TOTEN  =      -876.24108400 eV

  energy without entropy =     -876.24108400  energy(sigma->0) =     -876.24108400


--------------------------------------------------------------------------------------------------------




----------------------------------------- Iteration    1(  21)  ---------------------------------------


    POTLOK:  cpu time    0.6469: real time    0.6468
    SETDIJ:  cpu time    0.0550: real time    0.0547
    EDDIAG:  cpu time   19.6610: real time   19.6555
  RMM-DIIS:  cpu time  113.7857: real time  113.7550
    ORTHCH:  cpu time    2.7986: real time    2.7982
       DOS:  cpu time    0.0010: real time    0.0008
    CHARGE:  cpu time    6.4000: real time    6.3983
    MIXING:  cpu time    0.0240: real time    0.0242
    --------------------------------------------
      LOOP:  cpu time  143.3742: real time  143.3384

 eigenvalue-minimisations  : 13895
 total energy-change (2. order) : 0.3913830E-02  (-0.2622186E-01)
 number of electron     873.9999991 magnetization       0.0572313
 augmentation part      -17.6758046 magnetization       0.0742300

 Broyden mixing:
  rms(total) = 0.27093E+00    rms(broyden)= 0.27091E+00
  rms(prec ) = 0.29189E+00
  weight for this iteration     100.00

 eigenvalues of (default mixing * dielectric matrix)
  average eigenvalue GAMMA=   0.8768
  2.5453  1.6119  1.6119  0.9221  0.9221  1.1568  0.9906  0.9906  0.5875  0.5875
  0.5795  0.2380  0.2380  0.3752  0.3752  0.2969

 Free energy of the ion-electron system (eV)
  ---------------------------------------------------
  alpha Z        PSCENC =      2292.60070019
  Ewald energy   TEWEN  =    196173.81525348
  -Hartree energ DENC   =   -263207.83549475
  -exchange      EXHF   =         0.00000000
  -V(xc)+E(xc)   XCENC  =      2313.72154620
  PAW double counting   =     50349.18459066   -49522.11429781
  entropy T*S    EENTRO =        -0.00000000
  eigenvalues    EBANDS =     -9247.42650165
  atomic energy  EATOM  =     69971.81703351
  Solvation  Ediel_sol  =         0.00000000
  ---------------------------------------------------
  free energy    TOTEN  =      -876.23717017 eV

  energy without entropy =     -876.23717017  energy(sigma->0) =     -876.23717017


--------------------------------------------------------------------------------------------------------




----------------------------------------- Iteration    1(  22)  ---------------------------------------


    POTLOK:  cpu time    0.6469: real time    0.6472
    SETDIJ:  cpu time    0.0550: real time    0.0550
    EDDIAG:  cpu time   19.5900: real time   19.5834
  RMM-DIIS:  cpu time  121.1246: real time  121.0988
    ORTHCH:  cpu time    2.8006: real time    2.8003
       DOS:  cpu time    0.0010: real time    0.0007
    CHARGE:  cpu time    6.4020: real time    6.4007
    MIXING:  cpu time    0.0250: real time    0.0250
[...]
      5.854880  3.930135 13.361278    -0.002648    0.765173    0.436497
      1.926502  5.914512  0.454062            0           0           0
      5.779390  5.914512  0.454062            0           0           0
      9.632278  5.914512  0.454062            0           0           0
      0.000000  9.125310  1.362185            0           0           0
      3.852888  9.125310  1.362185            0           0           0
      7.705892  9.125310  1.362185            0           0           0
      1.926502  0.777328  2.270309            0           0           0
      5.779390  0.777328  2.270309            0           0           0
      9.632278  0.777328  2.270309            0           0           0
      0.000000  3.988126  3.178433            0           0           0
      3.852888  3.988126  3.178433            0           0           0
      7.705892  3.988126  3.178433            0           0           0
      5.779367  7.214956  4.148655            0           0           0
      9.630591  7.214054  4.148014            0           0           0
      1.928247  7.214100  4.147991            0           0           0
      0.000220 10.408924  5.031614            0           0           0
      7.703684 10.406162  5.035094            0           0           0
      3.855119 10.406162  5.035163            0           0           0
      9.630452  2.072975  5.922793            0           0           0
      1.928548  2.072998  5.922907            0           0           0
      5.779286  2.074743  5.929410            0           0           0
     11.558768  5.291818  6.856264            0           0           0
      3.862124  5.280848  6.870965            0           0           0
      7.696333  5.280779  6.871010            0           0           0
      1.920630  8.544019  7.940700            0           0           0
      9.638739  8.544389  7.940265            0           0           0
      5.779344  8.530865  7.960186            0           0           0
      7.710931  0.145768  8.686960            0           0           0
      3.848369  0.145710  8.687532            0           0           0
      0.000312  0.163684  8.688677            0           0           0
      9.630232  3.277423  9.611913            0           0           0
      1.928340  3.277677  9.612234            0           0           0
      5.778962  3.218219  9.662952            0           0           0
      0.000058  6.395681 10.452191            0           0           0
      3.798527  6.437200 10.461236            0           0           0
      7.761178  6.439154 10.460594            0           0           0

   5 f  =    1.238723 THz     7.783126 2PiTHz   41.319347 cm-1     5.122948 meV
             X         Y         Z           dx          dy          dz
      5.816598  3.762660 12.186098     0.387943    0.004360   -0.007193
      0.000000  7.198924  0.000000            0           0           0
      3.852888  7.198924  0.000000            0           0           0
      7.705892  7.198924  0.000000            0           0           0
      0.000000  4.630216  0.908124            0           0           0
      3.852888  4.630216  0.908124            0           0           0
      7.705892  4.630216  0.908124            0           0           0
      1.926502 10.409606  0.908124            0           0           0
      5.779390 10.409606  0.908124            0           0           0
      9.632278 10.409606  0.908124            0           0           0
      0.000000  2.061624  1.816247            0           0           0
      3.852888  2.061624  1.816247            0           0           0
      7.705892  2.061624  1.816247            0           0           0
      1.926502  7.841014  1.816247            0           0           0
      5.779390  7.841014  1.816247            0           0           0
      9.632278  7.841014  1.816247            0           0           0
      1.926502  5.272422  2.724371            0           0           0
      5.779390  5.272422  2.724371            0           0           0
      9.632278  5.272422  2.724371            0           0           0
      0.000000 11.051812  2.724371            0           0           0
      3.852888 11.051812  2.724371            0           0           0
      7.705892 11.051812  2.724371            0           0           0
      3.852969  8.495472  3.627525            0           0           0
      7.705869  8.495495  3.627617            0           0           0
      0.000058  8.496085  3.627800            0           0           0
      1.926502  2.703830  3.632494            0           0           0
      5.779390  2.703830  3.632494            0           0           0
      9.632278  2.703830  3.632494            0           0           0
      9.630082  0.146427  4.548655            0           0           0
      1.928952  0.146392  4.548495            0           0           0
      5.779378  0.144462  4.550876            0           0           0
      0.000116  5.939190  4.590008            0           0           0
      3.858864  5.939803  4.601801            0           0           0
      7.699800  5.939803  4.601846            0           0           0
      3.849467  3.353306  5.496186            0           0           0
      7.709290  3.353329  5.496208            0           0           0
     11.558664  3.360762  5.508390            0           0           0
      5.779367  9.133401  5.516793            0           0           0
      1.926641  9.137505  5.518213            0           0           0
      9.632452  9.137632  5.518282            0           0           0
      0.000601  0.757562  6.410812            0           0           0
      3.852067  0.756603  6.421368            0           0           0
      7.706620  0.756765  6.421231            0           0           0
      9.636289  6.581928  6.447334            0           0           0
      1.922607  6.582055  6.447677            0           0           0
      5.779344  6.586436  6.473002            0           0           0
      5.779298  3.980312  7.338055            0           0           0
      1.947793  4.002343  7.365899            0           0           0
      9.610455  4.002597  7.366426            0           0           0
      0.000462  9.753772  7.374234            0           0           0
      3.853651  9.744907  7.378218            0           0           0
      7.705175  9.744872  7.377989            0           0           0
      9.646241  1.454233  8.192278            0           0           0
      1.914065  1.454441  8.193422            0           0           0
      5.778951  1.431335  8.215542            0           0           0
      0.000012  7.188151  8.328588            0           0           0
      3.824708  7.191619  8.332183            0           0           0
      7.734777  7.191688  8.331702            0           0           0
      0.000243  4.604105  9.132824            0           0           0
      9.636266 10.511346  9.179352            0           0           0
      1.923265 10.511242  9.179971            0           0           0
      5.779274 10.488738  9.191511            0           0           0
      3.902672  4.620241  9.194373            0           0           0
      7.654802  4.620611  9.195610            0           0           0
      7.743689  2.001322 10.068998            0           0           0
      3.817252  2.002709 10.072661            0           0           0
      0.000069  2.032034 10.096887            0           0           0
      5.780268  7.585311 10.174258            0           0           0
      9.645051  7.667968 10.216940            0           0           0
      1.914203  7.666407 10.216986            0           0           0
      1.915949  5.108345 11.024519            0           0           0
      9.642958  5.109836 11.023031            0           0           0
      5.777910  5.147518 11.278157            0           0           0
      5.854880  3.930135 13.361278     0.921215    0.013380   -0.024771
      1.926502  5.914512  0.454062            0           0           0
      5.779390  5.914512  0.454062            0           0           0
      9.632278  5.914512  0.454062            0           0           0
      0.000000  9.125310  1.362185            0           0           0
      3.852888  9.125310  1.362185            0           0           0
      7.705892  9.125310  1.362185            0           0           0
      1.926502  0.777328  2.270309            0           0           0
      5.779390  0.777328  2.270309            0           0           0
      9.632278  0.777328  2.270309            0           0           0
      0.000000  3.988126  3.178433            0           0           0
      3.852888  3.988126  3.178433            0           0           0
      7.705892  3.988126  3.178433            0           0           0
      5.779367  7.214956  4.148655            0           0           0
      9.630591  7.214054  4.148014            0           0           0
      1.928247  7.214100  4.147991            0           0           0
      0.000220 10.408924  5.031614            0           0           0
      7.703684 10.406162  5.035094            0           0           0
      3.855119 10.406162  5.035163            0           0           0
      9.630452  2.072975  5.922793            0           0           0
      1.928548  2.072998  5.922907            0           0           0
      5.779286  2.074743  5.929410            0           0           0
     11.558768  5.291818  6.856264            0           0           0
      3.862124  5.280848  6.870965            0           0           0
      7.696333  5.280779  6.871010            0           0           0
      1.920630  8.544019  7.940700            0           0           0
      9.638739  8.544389  7.940265            0           0           0
      5.779344  8.530865  7.960186            0           0           0
      7.710931  0.145768  8.686960            0           0           0
      3.848369  0.145710  8.687532            0           0           0
      0.000312  0.163684  8.688677            0           0           0
      9.630232  3.277423  9.611913            0           0           0
      1.928340  3.277677  9.612234            0           0           0
      5.778962  3.218219  9.662952            0           0           0
      0.000058  6.395681 10.452191            0           0           0
      3.798527  6.437200 10.461236            0           0           0
      7.761178  6.439154 10.460594            0           0           0

   6 f/i=    5.299638 THz    33.298605 2PiTHz  176.776878 cm-1    21.917547 meV
             X         Y         Z           dx          dy          dz
      5.816598  3.762660 12.186098     0.017901   -0.732359    0.443534
      0.000000  7.198924  0.000000            0           0           0
      3.852888  7.198924  0.000000            0           0           0
      7.705892  7.198924  0.000000            0           0           0
      0.000000  4.630216  0.908124            0           0           0
      3.852888  4.630216  0.908124            0           0           0
      7.705892  4.630216  0.908124            0           0           0
      1.926502 10.409606  0.908124            0           0           0
      5.779390 10.409606  0.908124            0           0           0
      9.632278 10.409606  0.908124            0           0           0
      0.000000  2.061624  1.816247            0           0           0
      3.852888  2.061624  1.816247            0           0           0
      7.705892  2.061624  1.816247            0           0           0
      1.926502  7.841014  1.816247            0           0           0
      5.779390  7.841014  1.816247            0           0           0
      9.632278  7.841014  1.816247            0           0           0
      1.926502  5.272422  2.724371            0           0           0
      5.779390  5.272422  2.724371            0           0           0
      9.632278  5.272422  2.724371            0           0           0
      0.000000 11.051812  2.724371            0           0           0
      3.852888 11.051812  2.724371            0           0           0
      7.705892 11.051812  2.724371            0           0           0
      3.852969  8.495472  3.627525            0           0           0
      7.705869  8.495495  3.627617            0           0           0
      0.000058  8.496085  3.627800            0           0           0
      1.926502  2.703830  3.632494            0           0           0
      5.779390  2.703830  3.632494            0           0           0
      9.632278  2.703830  3.632494            0           0           0
      9.630082  0.146427  4.548655            0           0           0
      1.928952  0.146392  4.548495            0           0           0
      5.779378  0.144462  4.550876            0           0           0
      0.000116  5.939190  4.590008            0           0           0
      3.858864  5.939803  4.601801            0           0           0
      7.699800  5.939803  4.601846            0           0           0
      3.849467  3.353306  5.496186            0           0           0
      7.709290  3.353329  5.496208            0           0           0
     11.558664  3.360762  5.508390            0           0           0
      5.779367  9.133401  5.516793            0           0           0
      1.926641  9.137505  5.518213            0           0           0
      9.632452  9.137632  5.518282            0           0           0
      0.000601  0.757562  6.410812            0           0           0
      3.852067  0.756603  6.421368            0           0           0
      7.706620  0.756765  6.421231            0           0           0
      9.636289  6.581928  6.447334            0           0           0
      1.922607  6.582055  6.447677            0           0           0
      5.779344  6.586436  6.473002            0           0           0
      5.779298  3.980312  7.338055            0           0           0
      1.947793  4.002343  7.365899            0           0           0
      9.610455  4.002597  7.366426            0           0           0
      0.000462  9.753772  7.374234            0           0           0
      3.853651  9.744907  7.378218            0           0           0
      7.705175  9.744872  7.377989            0           0           0
      9.646241  1.454233  8.192278            0           0           0
      1.914065  1.454441  8.193422            0           0           0
      5.778951  1.431335  8.215542            0           0           0
      0.000012  7.188151  8.328588            0           0           0
      3.824708  7.191619  8.332183            0           0           0
      7.734777  7.191688  8.331702            0           0           0
      0.000243  4.604105  9.132824            0           0           0
      9.636266 10.511346  9.179352            0           0           0
      1.923265 10.511242  9.179971            0           0           0
      5.779274 10.488738  9.191511            0           0           0
      3.902672  4.620241  9.194373            0           0           0
      7.654802  4.620611  9.195610            0           0           0
      7.743689  2.001322 10.068998            0           0           0
      3.817252  2.002709 10.072661            0           0           0
      0.000069  2.032034 10.096887            0           0           0
      5.780268  7.585311 10.174258            0           0           0
      9.645051  7.667968 10.216940            0           0           0
      1.914203  7.666407 10.216986            0           0           0
      1.915949  5.108345 11.024519            0           0           0
      9.642958  5.109836 11.023031            0           0           0
      5.777910  5.147518 11.278157            0           0           0
      5.854880  3.930135 13.361278     0.014292   -0.380703    0.348523
      1.926502  5.914512  0.454062            0           0           0
      5.779390  5.914512  0.454062            0           0           0
      9.632278  5.914512  0.454062            0           0           0
      0.000000  9.125310  1.362185            0           0           0
      3.852888  9.125310  1.362185            0           0           0
      7.705892  9.125310  1.362185            0           0           0
      1.926502  0.777328  2.270309            0           0           0
      5.779390  0.777328  2.270309            0           0           0
      9.632278  0.777328  2.270309            0           0           0
      0.000000  3.988126  3.178433            0           0           0
      3.852888  3.988126  3.178433            0           0           0
      7.705892  3.988126  3.178433            0           0           0
      5.779367  7.214956  4.148655            0           0           0
      9.630591  7.214054  4.148014            0           0           0
      1.928247  7.214100  4.147991            0           0           0
      0.000220 10.408924  5.031614            0           0           0
      7.703684 10.406162  5.035094            0           0           0
      3.855119 10.406162  5.035163            0           0           0
      9.630452  2.072975  5.922793            0           0           0
      1.928548  2.072998  5.922907            0           0           0
      5.779286  2.074743  5.929410            0           0           0
     11.558768  5.291818  6.856264            0           0           0
      3.862124  5.280848  6.870965            0           0           0
      7.696333  5.280779  6.871010            0           0           0
      1.920630  8.544019  7.940700            0           0           0
      9.638739  8.544389  7.940265            0           0           0
      5.779344  8.530865  7.960186            0           0           0
      7.710931  0.145768  8.686960            0           0           0
      3.848369  0.145710  8.687532            0           0           0
      0.000312  0.163684  8.688677            0           0           0
      9.630232  3.277423  9.611913            0           0           0
      1.928340  3.277677  9.612234            0           0           0
      5.778962  3.218219  9.662952            0           0           0
      0.000058  6.395681 10.452191            0           0           0
      3.798527  6.437200 10.461236            0           0           0
      7.761178  6.439154 10.460594            0           0           0

 Finite differences POTIM=  2.000000000000000E-002
 writing wavefunctions
     LOOP+:  cpu time 1416.1937: real time 1435.9080
    4ORBIT:  cpu time    0.0000: real time    0.0000

 total amount of memory used by VASP on root node   382495. kBytes
========================================================================

   base      :      30000. kBytes
   nonlr-proj:      91761. kBytes
   fftplans  :      12065. kBytes
   grid      :      98240. kBytes
   one-center:      10813. kBytes
   wavefun   :     139616. kBytes



 General timing and accounting informations for this job:
 ========================================================

                  Total CPU time used (sec):    22845.721
                            User time (sec):    21791.671
                          System time (sec):     1054.049
                         Elapsed time (sec):    22867.341

                   Maximum memory used (kb):      655016.
                   Average memory used (kb):           0.

                          Minor page faults:      3053988
                          Major page faults:            0
                 Voluntary context switches:         4354
